
.Version 10.3.4.3 of ABINIT, released Nov 2024.
.(MPI version, prepared for a aarch64_darwin23.6.0_gnu14.2 computer) 

.Copyright (C) 1998-2024 ABINIT group . 
 ABINIT comes with ABSOLUTELY NO WARRANTY.
 It is free software, and you are welcome to redistribute it
 under certain conditions (GNU General Public License,
 see ~abinit/COPYING or http://www.gnu.org/copyleft/gpl.txt).

 ABINIT is a project of the Universite Catholique de Louvain,
 Corning Inc. and other collaborators, see ~abinit/doc/developers/contributors.txt .
 Please read https://docs.abinit.org/theory/acknowledgments for suggested
 acknowledgments of the ABINIT effort.
 For more information, see https://www.abinit.org .

.Starting date : Thu 23 Jan 2025.
- ( at 10h42 )
  
- input  file    -> ddb.abi
- output file    -> ddb.abo
- root for input  files -> ddbi
- root for output files -> ddbo

 DATASET    1 : space group Fd -3 m (#227); Bravais cF (face-center cubic)
================================================================================
 Values of the parameters that define the memory need for DATASET  1 (RF).
     intxc =       0      iscf =       7    lmnmax =       4     lnmax =       4
     mgfft =      30  mpssoang =       2    mqgrid =    3001     natom =       2
  nloc_mem =       1    nspden =       1   nspinor =       1    nsppol =       1
      nsym =      48    n1xccc =    2501    ntypat =       1    occopt =       1
   xclevel =       2
-    mband =           8        mffmem =           1         mkmem =         128
-   mkqmem =         128        mk1mem =         128           mpw =        1124
      nfft =       27000          nkpt =         512
================================================================================
P This job should need less than                      63.324 Mbytes of memory.
  Rough estimation (10% accuracy) of disk space for files :
_ WF disk file :     70.252 Mbytes ; DEN or POT disk file :      0.208 Mbytes.
================================================================================

 DATASET    2 : space group Fd -3 m (#227); Bravais cF (face-center cubic)
================================================================================
 Values of the parameters that define the memory need for DATASET  2 (RF).
     intxc =       0      iscf =       7    lmnmax =       4     lnmax =       4
     mgfft =      30  mpssoang =       2    mqgrid =    3001     natom =       2
  nloc_mem =       1    nspden =       1   nspinor =       1    nsppol =       1
      nsym =      48    n1xccc =    2501    ntypat =       1    occopt =       1
   xclevel =       2
-    mband =           8        mffmem =           1         mkmem =         128
-   mkqmem =         128        mk1mem =         128           mpw =        1124
      nfft =       27000          nkpt =         512
================================================================================
P This job should need less than                      64.794 Mbytes of memory.
  Rough estimation (10% accuracy) of disk space for files :
_ WF disk file :     70.252 Mbytes ; DEN or POT disk file :      0.208 Mbytes.
================================================================================

 DATASET    3 : space group Fd -3 m (#227); Bravais cF (face-center cubic)
================================================================================
 Values of the parameters that define the memory need for DATASET  3 (RF).
     intxc =       0      iscf =       7    lmnmax =       4     lnmax =       4
     mgfft =      30  mpssoang =       2    mqgrid =    3001     natom =       2
  nloc_mem =       1    nspden =       1   nspinor =       1    nsppol =       1
      nsym =      48    n1xccc =    2501    ntypat =       1    occopt =       1
   xclevel =       2
-    mband =           8        mffmem =           1         mkmem =         128
-   mkqmem =         128        mk1mem =         128           mpw =        1124
      nfft =       27000          nkpt =         512
================================================================================
P This job should need less than                      64.794 Mbytes of memory.
  Rough estimation (10% accuracy) of disk space for files :
_ WF disk file :     70.252 Mbytes ; DEN or POT disk file :      0.208 Mbytes.
================================================================================

--------------------------------------------------------------------------------
------------- Echo of variables that govern the present computation ------------
--------------------------------------------------------------------------------
-
- outvars: echo of selected default values
-   iomode0 =  0 , fftalg0 =312 , wfoptalg0 =  0
-
- outvars: echo of global parameters not present in the input file
-  max_nthreads =    0
-
 -outvars: echo values of preprocessed input variables --------
-          iomode           3
            acell      6.7510000000E+00  6.7510000000E+00  6.7510000000E+00 Bohr
              amu      1.20110000E+01
           diemac      1.20000000E+01
             ecut      4.50000000E+01 Hartree
-          fftalg         312
           istwfk        1    0    0    0    1    0    0    0    0    0
                         0    0    0    0    0    0    0    0    0    0
                         0    0    0    0    0    0    0    0    0    0
                         0    0    1    0    0    0    1    0    0    0
                         0    0    0    0    0    0    0    0    0    0
                       outvar_i_n : Printing only first  50 k-points.
              ixc          11
           jdtset        1    2    3
              kpt      0.00000000E+00  0.00000000E+00  0.00000000E+00
                       1.25000000E-01  0.00000000E+00  0.00000000E+00
                       2.50000000E-01  0.00000000E+00  0.00000000E+00
                       3.75000000E-01  0.00000000E+00  0.00000000E+00
                       5.00000000E-01  0.00000000E+00  0.00000000E+00
                      -3.75000000E-01  0.00000000E+00  0.00000000E+00
                      -2.50000000E-01  0.00000000E+00  0.00000000E+00
                      -1.25000000E-01  0.00000000E+00  0.00000000E+00
                       0.00000000E+00  1.25000000E-01  0.00000000E+00
                       1.25000000E-01  1.25000000E-01  0.00000000E+00
                       2.50000000E-01  1.25000000E-01  0.00000000E+00
                       3.75000000E-01  1.25000000E-01  0.00000000E+00
                       5.00000000E-01  1.25000000E-01  0.00000000E+00
                      -3.75000000E-01  1.25000000E-01  0.00000000E+00
                      -2.50000000E-01  1.25000000E-01  0.00000000E+00
                      -1.25000000E-01  1.25000000E-01  0.00000000E+00
                       0.00000000E+00  2.50000000E-01  0.00000000E+00
                       1.25000000E-01  2.50000000E-01  0.00000000E+00
                       2.50000000E-01  2.50000000E-01  0.00000000E+00
                       3.75000000E-01  2.50000000E-01  0.00000000E+00
                       5.00000000E-01  2.50000000E-01  0.00000000E+00
                      -3.75000000E-01  2.50000000E-01  0.00000000E+00
                      -2.50000000E-01  2.50000000E-01  0.00000000E+00
                      -1.25000000E-01  2.50000000E-01  0.00000000E+00
                       0.00000000E+00  3.75000000E-01  0.00000000E+00
                       1.25000000E-01  3.75000000E-01  0.00000000E+00
                       2.50000000E-01  3.75000000E-01  0.00000000E+00
                       3.75000000E-01  3.75000000E-01  0.00000000E+00
                       5.00000000E-01  3.75000000E-01  0.00000000E+00
                      -3.75000000E-01  3.75000000E-01  0.00000000E+00
                      -2.50000000E-01  3.75000000E-01  0.00000000E+00
                      -1.25000000E-01  3.75000000E-01  0.00000000E+00
                       0.00000000E+00  5.00000000E-01  0.00000000E+00
                       1.25000000E-01  5.00000000E-01  0.00000000E+00
                       2.50000000E-01  5.00000000E-01  0.00000000E+00
                       3.75000000E-01  5.00000000E-01  0.00000000E+00
                       5.00000000E-01  5.00000000E-01  0.00000000E+00
                      -3.75000000E-01  5.00000000E-01  0.00000000E+00
                      -2.50000000E-01  5.00000000E-01  0.00000000E+00
                      -1.25000000E-01  5.00000000E-01  0.00000000E+00
                       0.00000000E+00 -3.75000000E-01  0.00000000E+00
                       1.25000000E-01 -3.75000000E-01  0.00000000E+00
                       2.50000000E-01 -3.75000000E-01  0.00000000E+00
                       3.75000000E-01 -3.75000000E-01  0.00000000E+00
                       5.00000000E-01 -3.75000000E-01  0.00000000E+00
                      -3.75000000E-01 -3.75000000E-01  0.00000000E+00
                      -2.50000000E-01 -3.75000000E-01  0.00000000E+00
                      -1.25000000E-01 -3.75000000E-01  0.00000000E+00
                       0.00000000E+00 -2.50000000E-01  0.00000000E+00
                       1.25000000E-01 -2.50000000E-01  0.00000000E+00
                       outvar_i_n : Printing only first  50 k-points.
           kptopt           3
         kptrlatt        8    0    0      0    8    0      0    0    8
          kptrlen      3.81894230E+01
P           mkmem         128
P          mkqmem         128
P          mk1mem         128
            natom           2
            nband           8
           ndtset           3
            ngfft          30      30      30
             nkpt         512
             nqpt           1
            nstep         100
             nsym          48
           ntypat           1
              occ      2.000000  2.000000  2.000000  2.000000  0.000000  0.000000
                       0.000000  0.000000
        optdriver           1
           prteig           0
           prtpot           1
            prtwf           0
              qpt1     0.00000000E+00  0.00000000E+00  0.00000000E+00
              qpt2     5.00000000E-01  0.00000000E+00  0.00000000E+00
              qpt3     5.00000000E-01  5.00000000E-01  0.00000000E+00
           rfphon           1
            rprim      0.0000000000E+00  5.0000000000E-01  5.0000000000E-01
                       5.0000000000E-01  0.0000000000E+00  5.0000000000E-01
                       5.0000000000E-01  5.0000000000E-01  0.0000000000E+00
          spgroup         227
           symrel      1  0  0   0  1  0   0  0  1      -1  0  0   0 -1  0   0  0 -1
                       0 -1  1   0 -1  0   1 -1  0       0  1 -1   0  1  0  -1  1  0
                      -1  0  0  -1  0  1  -1  1  0       1  0  0   1  0 -1   1 -1  0
                       0  1 -1   1  0 -1   0  0 -1       0 -1  1  -1  0  1   0  0  1
                      -1  0  0  -1  1  0  -1  0  1       1  0  0   1 -1  0   1  0 -1
                       0 -1  1   1 -1  0   0 -1  0       0  1 -1  -1  1  0   0  1  0
                       1  0  0   0  0  1   0  1  0      -1  0  0   0  0 -1   0 -1  0
                       0  1 -1   0  0 -1   1  0 -1       0 -1  1   0  0  1  -1  0  1
                      -1  0  1  -1  1  0  -1  0  0       1  0 -1   1 -1  0   1  0  0
                       0 -1  0   1 -1  0   0 -1  1       0  1  0  -1  1  0   0  1 -1
                       1  0 -1   0  0 -1   0  1 -1      -1  0  1   0  0  1   0 -1  1
                       0  1  0   0  0  1   1  0  0       0 -1  0   0  0 -1  -1  0  0
                       1  0 -1   0  1 -1   0  0 -1      -1  0  1   0 -1  1   0  0  1
                       0 -1  0   0 -1  1   1 -1  0       0  1  0   0  1 -1  -1  1  0
                      -1  0  1  -1  0  0  -1  1  0       1  0 -1   1  0  0   1 -1  0
                       0  1  0   1  0  0   0  0  1       0 -1  0  -1  0  0   0  0 -1
                       0  0 -1   0  1 -1   1  0 -1       0  0  1   0 -1  1  -1  0  1
                       1 -1  0   0 -1  1   0 -1  0      -1  1  0   0  1 -1   0  1  0
                       0  0  1   1  0  0   0  1  0       0  0 -1  -1  0  0   0 -1  0
                      -1  1  0  -1  0  0  -1  0  1       1 -1  0   1  0  0   1  0 -1
                       0  0  1   0  1  0   1  0  0       0  0 -1   0 -1  0  -1  0  0
                       1 -1  0   0 -1  0   0 -1  1      -1  1  0   0  1  0   0  1 -1
                       0  0 -1   1  0 -1   0  1 -1       0  0  1  -1  0  1   0 -1  1
                      -1  1  0  -1  0  1  -1  0  0       1 -1  0   1  0 -1   1  0  0
            tnons      0.0000000  0.0000000  0.0000000     0.2500000  0.2500000  0.2500000
                       0.0000000  0.0000000  0.0000000     0.2500000  0.2500000  0.2500000
                       0.0000000  0.0000000  0.0000000     0.2500000  0.2500000  0.2500000
                       0.0000000  0.0000000  0.0000000     0.2500000  0.2500000  0.2500000
                       0.0000000  0.0000000  0.0000000     0.2500000  0.2500000  0.2500000
                       0.0000000  0.0000000  0.0000000     0.2500000  0.2500000  0.2500000
                       0.0000000  0.0000000  0.0000000     0.2500000  0.2500000  0.2500000
                       0.0000000  0.0000000  0.0000000     0.2500000  0.2500000  0.2500000
                       0.0000000  0.0000000  0.0000000     0.2500000  0.2500000  0.2500000
                       0.0000000  0.0000000  0.0000000     0.2500000  0.2500000  0.2500000
                       0.0000000  0.0000000  0.0000000     0.2500000  0.2500000  0.2500000
                       0.0000000  0.0000000  0.0000000     0.2500000  0.2500000  0.2500000
                       0.0000000  0.0000000  0.0000000     0.2500000  0.2500000  0.2500000
                       0.0000000  0.0000000  0.0000000     0.2500000  0.2500000  0.2500000
                       0.0000000  0.0000000  0.0000000     0.2500000  0.2500000  0.2500000
                       0.0000000  0.0000000  0.0000000     0.2500000  0.2500000  0.2500000
                       0.0000000  0.0000000  0.0000000     0.2500000  0.2500000  0.2500000
                       0.0000000  0.0000000  0.0000000     0.2500000  0.2500000  0.2500000
                       0.0000000  0.0000000  0.0000000     0.2500000  0.2500000  0.2500000
                       0.0000000  0.0000000  0.0000000     0.2500000  0.2500000  0.2500000
                       0.0000000  0.0000000  0.0000000     0.2500000  0.2500000  0.2500000
                       0.0000000  0.0000000  0.0000000     0.2500000  0.2500000  0.2500000
                       0.0000000  0.0000000  0.0000000     0.2500000  0.2500000  0.2500000
                       0.0000000  0.0000000  0.0000000     0.2500000  0.2500000  0.2500000
           tolvrs      1.00000000E-18
            typat      1  1
              wtk        0.00195    0.00195    0.00195    0.00195    0.00195    0.00195
                         0.00195    0.00195    0.00195    0.00195    0.00195    0.00195
                         0.00195    0.00195    0.00195    0.00195    0.00195    0.00195
                         0.00195    0.00195    0.00195    0.00195    0.00195    0.00195
                         0.00195    0.00195    0.00195    0.00195    0.00195    0.00195
                         0.00195    0.00195    0.00195    0.00195    0.00195    0.00195
                         0.00195    0.00195    0.00195    0.00195    0.00195    0.00195
                         0.00195    0.00195    0.00195    0.00195    0.00195    0.00195
                         0.00195    0.00195
                       outvars : Printing only first  50 k-points.
           xangst      0.0000000000E+00  0.0000000000E+00  0.0000000000E+00
                       8.9311883380E-01  8.9311883380E-01  8.9311883380E-01
            xcart      0.0000000000E+00  0.0000000000E+00  0.0000000000E+00
                       1.6877500000E+00  1.6877500000E+00  1.6877500000E+00
             xred      0.0000000000E+00  0.0000000000E+00  0.0000000000E+00
                       2.5000000000E-01  2.5000000000E-01  2.5000000000E-01
            znucl        6.00000

================================================================================

 chkinp: Checking input parameters for consistency, jdtset=   1.

 chkinp: Checking input parameters for consistency, jdtset=   2.

 chkinp: Checking input parameters for consistency, jdtset=   3.

================================================================================
== DATASET  1 ==================================================================
-   mpi_nproc: 4, omp_nthreads: -1 (-1 if OMP is not activated)


--- !DatasetInfo
iteration_state: {dtset: 1, }
dimensions: {natom: 2, nkpt: 512, mband: 8, nsppol: 1, nspinor: 1, nspden: 1, mpw: 1124, }
cutoff_energies: {ecut:  45.0, pawecutdg:  -1.0, }
electrons: {nelect:   8.00000000E+00, charge:   0.00000000E+00, occopt:   1.00000000E+00, tsmear:   1.00000000E-02, }
meta: {optdriver: 1, rfphon: 1, }
...

 mkfilename: getwfk from: groundstateo_WFK.nc

 Exchange-correlation functional for the present dataset will be:
  GGA: Perdew-Burke-Ernzerhof functional - ixc=11
 Citation for XC functional:
  J.P.Perdew, K.Burke, M.Ernzerhof, PRL 77, 3865 (1996)

 Real(R)+Recip(G) space primitive vectors, cartesian coordinates (Bohr,Bohr^-1):
 R(1)=  0.0000000  3.3755000  3.3755000  G(1)= -0.1481262  0.1481262  0.1481262
 R(2)=  3.3755000  0.0000000  3.3755000  G(2)=  0.1481262 -0.1481262  0.1481262
 R(3)=  3.3755000  3.3755000  0.0000000  G(3)=  0.1481262  0.1481262 -0.1481262
 Unit cell volume ucvol=  7.6920896E+01 bohr^3
 Angles (23,13,12)=  6.00000000E+01  6.00000000E+01  6.00000000E+01 degrees
 setup1 : take into account q-point for computing boxcut.

 getcut: wavevector=  0.0000  0.0000  0.0000  ngfft=  30  30  30
         ecut(hartree)=     45.000   => boxcut(ratio)=   2.08343

--- Pseudopotential description ------------------------------------------------
- pspini: atom type   1  psp file is C.psp8
- pspatm: opening atomic psp file    C.psp8
- C     ONCVPSP-3.2.3.1  r_core=   1.20440   1.26326
-  6.00000   4.00000    170503                znucl, zion, pspdat
    8   11    1    4       600   0.00000      pspcod,pspxc,lmax,lloc,mmax,r2well
    5.99000000000000    4.00000000000000    0.00000000000000   rchrg,fchrg,qchrg
     nproj     2     2
     extension_switch     1
  pspatm : epsatm=    4.31347020
         --- l  ekb(1:nproj) -->
             0    6.481548    0.385504
             1   -4.199961   -0.877517
 pspatm: atomic psp has been read  and splines computed

   6.90155232E+01                                ecore*ucvol(ha*bohr**3)
--------------------------------------------------------------------------------


 ==>  initialize data related to q vector <== 

 The list of irreducible perturbations for this q vector is:
    1)    idir= 1    ipert=   1

================================================================================

 The perturbation idir=   2  ipert=   1 is
 symmetric of a previously calculated perturbation.
 So, its SCF calculation is not needed.


 The perturbation idir=   3  ipert=   1 is
 symmetric of a previously calculated perturbation.
 So, its SCF calculation is not needed.


 The perturbation idir=   1  ipert=   2 is
 symmetric of a previously calculated perturbation.
 So, its SCF calculation is not needed.


 The perturbation idir=   2  ipert=   2 is
 symmetric of a previously calculated perturbation.
 So, its SCF calculation is not needed.


 The perturbation idir=   3  ipert=   2 is
 symmetric of a previously calculated perturbation.
 So, its SCF calculation is not needed.


--------------------------------------------------------------------------------
 Perturbation wavevector (in red.coord.)   0.000000  0.000000  0.000000
 Perturbation : displacement of atom   1   along direction   1
 Found     2 symmetries that leave the perturbation invariant.
 symkpt : the number of k-points, thanks to the symmetries,
 is reduced to   288 .

--------------------------------------------------------------------------------

--------------------------------------------------------------------------------

 Initialisation of the first-order wave-functions :
  ireadwf=   0

--- !BeginCycle
iteration_state: {dtset: 1, }
solver: {iscf: 7, nstep: 100, nline: 4, wfoptalg: 0, }
tolerances: {tolvrs: 1.00E-18, }
...

     iter   2DEtotal(Ha)        deltaE(Ha) residm    vres2
-ETOT  1   8.9980761518122     -3.618E+02 5.365E+00 1.124E+03
 ETOT  2   8.6235502215949     -3.745E-01 3.245E-01 6.340E+00
 ETOT  3   8.6213594420194     -2.191E-03 7.717E-03 1.534E-01
 ETOT  4   8.6213348034131     -2.464E-05 1.257E-03 1.260E-03
 ETOT  5   8.6213346225806     -1.808E-07 5.468E-05 3.643E-04
 ETOT  6   8.6213344718303     -1.508E-07 9.040E-06 5.510E-05
 ETOT  7   8.6213344445988     -2.723E-08 5.800E-07 4.017E-08
 ETOT  8   8.6213344445920     -6.764E-12 1.019E-07 1.593E-10
 ETOT  9   8.6213344445916     -3.979E-13 6.228E-09 1.310E-12
 ETOT 10   8.6213344445922      5.684E-13 1.916E-09 8.634E-15
 ETOT 11   8.6213344445913     -9.095E-13 1.189E-10 2.774E-17
 ETOT 12   8.6213344445922      9.095E-13 3.713E-11 1.644E-19

 At SCF step   12       vres2   =  1.64E-19 < tolvrs=  1.00E-18 =>converged.
================================================================================

 ----iterations are completed or convergence reached----

 Mean square residual over all n,k,spin=   91.547E-15; max=  37.130E-12

 Thirteen components of 2nd-order total energy (hartree) are
 1,2,3: 0th-order hamiltonian combined with 1st-order wavefunctions
     kin0=   3.69455383E+02 eigvalue=  -9.13352699E+00  local=  -1.33204480E+02
 4,5,6: 1st-order hamiltonian combined with 1st and 0th-order wfs
 loc psp =  -1.30760729E+02  Hartree=   2.56086666E+01     xc=  -1.01662184E+01
 note that "loc psp" includes a xc core correction that could be resolved
 7,8,9: eventually, occupation + non-local contributions
    edocc=   1.37550019E+01     enl0=   1.05841878E+02   enl1=  -5.93552678E+02
 1-9 gives the relaxation energy (to be shifted if some occ is /=2.0)
   erelax=  -3.62156703E+02
 10,11,12 Non-relaxation  contributions : frozen-wavefunctions and Ewald
 fr.local=   5.03481202E+01 fr.nonlo=   3.02374634E+02  Ewald=   1.98550269E+01
 13,14 Frozen wf xc core corrections (1) and (2)
 frxc 1  =  -1.12048086E+01  frxc 2 =   9.40506583E+00
 Resulting in :
 2DEtotal=    0.8621334445E+01 Ha. Also 2DEtotal=    0.234598440957E+03 eV
    (2DErelax=   -3.6215670348E+02 Ha. 2DEnonrelax=    3.7077803793E+02 Ha)
    (  non-var. 2DEtotal :    8.6213344446E+00 Ha)

================================================================================

 ---- first-order wavefunction calculations are completed ----


 ==> Compute Derivative Database <==
  
  2nd-order matrix (non-cartesian coordinates, masses not included,
   asr not included )
     j1       j2             matrix element
  dir pert dir pert     real part     imaginary part
  
   1    1   1    1         8.6213352039         0.0000000000
   1    1   2    1         4.3106676019         0.0000000000
   1    1   3    1         4.3106676019         0.0000000000
   1    1   1    2        -8.6213344034        -0.0000000000
   1    1   2    2        -4.3106672017         0.0000000000
   1    1   3    2        -4.3106672017         0.0000000000
   1    1   2    4         0.0000000000         0.0000000000
   1    1   3    4         0.0000000000         0.0000000000
  
   2    1   1    1         4.3106676019         0.0000000000
   2    1   2    1         8.6213352039         0.0000000000
   2    1   3    1         4.3106676019         0.0000000000
   2    1   1    2        -4.3106672017         0.0000000000
   2    1   2    2        -8.6213344034        -0.0000000000
   2    1   3    2        -4.3106672017        -0.0000000000
   2    1   1    4         0.0000000000         0.0000000000
   2    1   3    4         0.0000000000         0.0000000000
  
   3    1   1    1         4.3106676019         0.0000000000
   3    1   2    1         4.3106676019         0.0000000000
   3    1   3    1         8.6213352039         0.0000000000
   3    1   1    2        -4.3106672017         0.0000000000
   3    1   2    2        -4.3106672017        -0.0000000000
   3    1   3    2        -8.6213344034         0.0000000000
   3    1   1    4         0.0000000000         0.0000000000
   3    1   2    4         0.0000000000         0.0000000000
  
   1    2   1    1        -8.6213344034         0.0000000000
   1    2   2    1        -4.3106672017        -0.0000000000
   1    2   3    1        -4.3106672017        -0.0000000000
   1    2   1    2         8.6213352039         0.0000000000
   1    2   2    2         4.3106676019         0.0000000000
   1    2   3    2         4.3106676019         0.0000000000
   1    2   2    4         0.0000000000         0.0000000000
   1    2   3    4         0.0000000000         0.0000000000
  
   2    2   1    1        -4.3106672017        -0.0000000000
   2    2   2    1        -8.6213344034         0.0000000000
   2    2   3    1        -4.3106672017         0.0000000000
   2    2   1    2         4.3106676019         0.0000000000
   2    2   2    2         8.6213352039         0.0000000000
   2    2   3    2         4.3106676019         0.0000000000
   2    2   1    4         0.0000000000         0.0000000000
   2    2   3    4         0.0000000000         0.0000000000
  
   3    2   1    1        -4.3106672017        -0.0000000000
   3    2   2    1        -4.3106672017         0.0000000000
   3    2   3    1        -8.6213344034        -0.0000000000
   3    2   1    2         4.3106676019         0.0000000000
   3    2   2    2         4.3106676019         0.0000000000
   3    2   3    2         8.6213352039         0.0000000000
   3    2   1    4         0.0000000000         0.0000000000
   3    2   2    4         0.0000000000         0.0000000000
  
   1    4   2    1         0.0000000000         0.0000000000
   1    4   3    1         0.0000000000         0.0000000000
   1    4   2    2         0.0000000000         0.0000000000
   1    4   3    2         0.0000000000         0.0000000000
  
   2    4   1    1         0.0000000000         0.0000000000
   2    4   3    1         0.0000000000         0.0000000000
   2    4   1    2         0.0000000000         0.0000000000
   2    4   3    2         0.0000000000         0.0000000000
  
   3    4   1    1         0.0000000000         0.0000000000
   3    4   2    1         0.0000000000         0.0000000000
   3    4   1    2         0.0000000000         0.0000000000
   3    4   2    2         0.0000000000         0.0000000000
  
  
  Dynamical matrix, in cartesian coordinates,
   if specified in the inputs, asr has been imposed
     j1       j2             matrix element
  dir pert dir pert     real part    imaginary part
  
   1    1   1    1         0.3783278135         0.0000000000
   1    1   2    1        -0.0000000000        -0.0000000000
   1    1   3    1         0.0000000000         0.0000000000
   1    1   1    2        -0.3783278135        -0.0000000000
   1    1   2    2         0.0000000000         0.0000000000
   1    1   3    2        -0.0000000000        -0.0000000000
  
   2    1   1    1        -0.0000000000        -0.0000000000
   2    1   2    1         0.3783278135        -0.0000000000
   2    1   3    1         0.0000000000         0.0000000000
   2    1   1    2         0.0000000000         0.0000000000
   2    1   2    2        -0.3783278135         0.0000000000
   2    1   3    2        -0.0000000000        -0.0000000000
  
   3    1   1    1         0.0000000000         0.0000000000
   3    1   2    1         0.0000000000         0.0000000000
   3    1   3    1         0.3783278135        -0.0000000000
   3    1   1    2        -0.0000000000        -0.0000000000
   3    1   2    2        -0.0000000000        -0.0000000000
   3    1   3    2        -0.3783278135         0.0000000000
  
   1    2   1    1        -0.3783278135         0.0000000000
   1    2   2    1         0.0000000000        -0.0000000000
   1    2   3    1        -0.0000000000         0.0000000000
   1    2   1    2         0.3783278135        -0.0000000000
   1    2   2    2        -0.0000000000         0.0000000000
   1    2   3    2         0.0000000000        -0.0000000000
  
   2    2   1    1         0.0000000000        -0.0000000000
   2    2   2    1        -0.3783278135        -0.0000000000
   2    2   3    1        -0.0000000000         0.0000000000
   2    2   1    2        -0.0000000000         0.0000000000
   2    2   2    2         0.3783278135         0.0000000000
   2    2   3    2         0.0000000000        -0.0000000000
  
   3    2   1    1        -0.0000000000         0.0000000000
   3    2   2    1        -0.0000000000         0.0000000000
   3    2   3    1        -0.3783278135        -0.0000000000
   3    2   1    2         0.0000000000        -0.0000000000
   3    2   2    2         0.0000000000        -0.0000000000
   3    2   3    2         0.3783278135         0.0000000000

  Phonon wavevector (reduced coordinates) :  0.00000  0.00000  0.00000
 Phonon energies in Hartree :
   0.000000E+00  0.000000E+00  0.000000E+00  5.878676E-03  5.878676E-03
   5.878676E-03
 Phonon frequencies in cm-1    :
-  0.000000E+00  0.000000E+00  0.000000E+00  1.290220E+03  1.290220E+03
-  1.290220E+03

================================================================================
== DATASET  2 ==================================================================
-   mpi_nproc: 4, omp_nthreads: -1 (-1 if OMP is not activated)


--- !DatasetInfo
iteration_state: {dtset: 2, }
dimensions: {natom: 2, nkpt: 512, mband: 8, nsppol: 1, nspinor: 1, nspden: 1, mpw: 1124, }
cutoff_energies: {ecut:  45.0, pawecutdg:  -1.0, }
electrons: {nelect:   8.00000000E+00, charge:   0.00000000E+00, occopt:   1.00000000E+00, tsmear:   1.00000000E-02, }
meta: {optdriver: 1, rfphon: 1, }
...

 mkfilename: getwfk from: groundstateo_WFK.nc

 Exchange-correlation functional for the present dataset will be:
  GGA: Perdew-Burke-Ernzerhof functional - ixc=11
 Citation for XC functional:
  J.P.Perdew, K.Burke, M.Ernzerhof, PRL 77, 3865 (1996)

 Real(R)+Recip(G) space primitive vectors, cartesian coordinates (Bohr,Bohr^-1):
 R(1)=  0.0000000  3.3755000  3.3755000  G(1)= -0.1481262  0.1481262  0.1481262
 R(2)=  3.3755000  0.0000000  3.3755000  G(2)=  0.1481262 -0.1481262  0.1481262
 R(3)=  3.3755000  3.3755000  0.0000000  G(3)=  0.1481262  0.1481262 -0.1481262
 Unit cell volume ucvol=  7.6920896E+01 bohr^3
 Angles (23,13,12)=  6.00000000E+01  6.00000000E+01  6.00000000E+01 degrees
 setup1 : take into account q-point for computing boxcut.

 getcut: wavevector=  0.5000  0.0000  0.0000  ngfft=  30  30  30
         ecut(hartree)=     45.000   => boxcut(ratio)=   2.01235
--------------------------------------------------------------------------------


 ==>  initialize data related to q vector <== 

 The list of irreducible perturbations for this q vector is:
    1)    idir= 1    ipert=   1
    2)    idir= 2    ipert=   1

================================================================================

 The perturbation idir=   3  ipert=   1 is
 symmetric of a previously calculated perturbation.
 So, its SCF calculation is not needed.


 The perturbation idir=   1  ipert=   2 is
 symmetric of a previously calculated perturbation.
 So, its SCF calculation is not needed.


 The perturbation idir=   2  ipert=   2 is
 symmetric of a previously calculated perturbation.
 So, its SCF calculation is not needed.


 The perturbation idir=   3  ipert=   2 is
 symmetric of a previously calculated perturbation.
 So, its SCF calculation is not needed.


--------------------------------------------------------------------------------
 Perturbation wavevector (in red.coord.)   0.500000  0.000000  0.000000
 Perturbation : displacement of atom   1   along direction   1
 Found     2 symmetries that leave the perturbation invariant.
 symkpt : the number of k-points, thanks to the symmetries,
 is reduced to   288 .

--------------------------------------------------------------------------------

--------------------------------------------------------------------------------

 Initialisation of the first-order wave-functions :
  ireadwf=   0

--- !BeginCycle
iteration_state: {dtset: 2, }
solver: {iscf: 7, nstep: 100, nline: 4, wfoptalg: 0, }
tolerances: {tolvrs: 1.00E-18, }
...

     iter   2DEtotal(Ha)        deltaE(Ha) residm    vres2
-ETOT  1   13.547338341066     -3.942E+02 5.884E+00 1.044E+04
 ETOT  2   12.606675149245     -9.407E-01 4.927E-01 2.657E+03
 ETOT  3   12.114487783130     -4.922E-01 2.160E-02 1.351E+02
 ETOT  4   12.083576880502     -3.091E-02 2.140E-03 1.047E+00
 ETOT  5   12.083437547808     -1.393E-04 2.918E-04 8.430E-03
 ETOT  6   12.083435753461     -1.794E-06 1.733E-05 3.035E-04
 ETOT  7   12.083435714031     -3.943E-08 4.592E-06 9.944E-06
 ETOT  8   12.083435712761     -1.271E-09 2.817E-07 4.191E-07
 ETOT  9   12.083435712707     -5.394E-11 7.630E-08 4.233E-09
 ETOT 10   12.083435712705     -1.307E-12 4.799E-09 6.579E-11
 ETOT 11   12.083435712703     -2.331E-12 1.311E-09 2.656E-11
 ETOT 12   12.083435712706      2.842E-12 8.282E-11 2.639E-13
 ETOT 13   12.083435712705     -1.421E-12 2.262E-11 1.395E-15
 ETOT 14   12.083435712707      2.672E-12 1.436E-12 1.537E-16
 ETOT 15   12.083435712706     -8.527E-13 3.927E-13 1.584E-18
 ETOT 16   12.083435712707      9.095E-13 2.590E-14 6.632E-20

 At SCF step   16       vres2   =  6.63E-20 < tolvrs=  1.00E-18 =>converged.
================================================================================

 ----iterations are completed or convergence reached----

 Mean square residual over all n,k,spin=   66.509E-18; max=  25.895E-15

 Thirteen components of 2nd-order total energy (hartree) are
 1,2,3: 0th-order hamiltonian combined with 1st-order wavefunctions
     kin0=   3.75290008E+02 eigvalue=  -1.01001429E+01  local=  -1.35757206E+02
 4,5,6: 1st-order hamiltonian combined with 1st and 0th-order wfs
 loc psp =  -2.04521949E+02  Hartree=   5.79764223E+01     xc=  -1.08528109E+01
 note that "loc psp" includes a xc core correction that could be resolved
 7,8,9: eventually, occupation + non-local contributions
    edocc=   1.29197401E+01     enl0=   1.06209556E+02   enl1=  -5.86849184E+02
 1-9 gives the relaxation energy (to be shifted if some occ is /=2.0)
   erelax=  -3.95685566E+02
 10,11,12 Non-relaxation  contributions : frozen-wavefunctions and Ewald
 fr.local=   5.03481202E+01 fr.nonlo=   3.02374634E+02  Ewald=   5.68459911E+01
 13,14 Frozen wf xc core corrections (1) and (2)
 frxc 1  =  -1.12048086E+01  frxc 2 =   9.40506583E+00
 Resulting in :
 2DEtotal=    0.1208343571E+02 Ha. Also 2DEtotal=    0.328807007526E+03 eV
    (2DErelax=   -3.9568556639E+02 Ha. 2DEnonrelax=    4.0776900210E+02 Ha)
    (  non-var. 2DEtotal :    1.2083435713E+01 Ha)


--------------------------------------------------------------------------------
 Perturbation wavevector (in red.coord.)   0.500000  0.000000  0.000000
 Perturbation : displacement of atom   1   along direction   2
 The set of symmetries contains only one element for this perturbation.
 symkpt : not enough symmetry to change the number of k points.

--------------------------------------------------------------------------------

--------------------------------------------------------------------------------

 Initialisation of the first-order wave-functions :
  ireadwf=   0

--- !BeginCycle
iteration_state: {dtset: 2, }
solver: {iscf: 7, nstep: 100, nline: 4, wfoptalg: 0, }
tolerances: {tolvrs: 1.00E-18, }
...

     iter   2DEtotal(Ha)        deltaE(Ha) residm    vres2
-ETOT  1   9.4194160409837     -3.641E+02 3.319E+00 1.603E+03
 ETOT  2   8.9390746767252     -4.803E-01 5.597E-01 1.565E+01
 ETOT  3   8.9343668073781     -4.708E-03 1.981E-02 2.551E-01
 ETOT  4   8.9343286407492     -3.817E-05 6.149E-03 3.257E-03
 ETOT  5   8.9343284277738     -2.130E-07 3.705E-04 2.009E-03
 ETOT  6   8.9343279814631     -4.463E-07 9.948E-05 8.390E-06
 ETOT  7   8.9343279796259     -1.837E-09 6.404E-06 5.530E-08
 ETOT  8   8.9343279796169     -9.038E-12 1.724E-06 3.670E-09
 ETOT  9   8.9343279796167     -1.705E-13 1.116E-07 1.133E-10
 ETOT 10   8.9343279796158     -9.095E-13 3.086E-08 4.819E-13
 ETOT 11   8.9343279796167      9.095E-13 1.986E-09 2.427E-14
 ETOT 12   8.9343279796154     -1.364E-12 5.653E-10 6.215E-15
 ETOT 13   8.9343279796164      1.023E-12 3.616E-11 1.744E-16
 ETOT 14   8.9343279796142     -2.160E-12 1.054E-11 3.336E-19

 At SCF step   14       vres2   =  3.34E-19 < tolvrs=  1.00E-18 =>converged.
================================================================================

 ----iterations are completed or convergence reached----

 Mean square residual over all n,k,spin=   10.814E-15; max=  10.536E-12

 Thirteen components of 2nd-order total energy (hartree) are
 1,2,3: 0th-order hamiltonian combined with 1st-order wavefunctions
     kin0=   3.68962516E+02 eigvalue=  -9.06521914E+00  local=  -1.33098255E+02
 4,5,6: 1st-order hamiltonian combined with 1st and 0th-order wfs
 loc psp =  -1.39141756E+02  Hartree=   2.82980168E+01     xc=  -1.04837059E+01
 note that "loc psp" includes a xc core correction that could be resolved
 7,8,9: eventually, occupation + non-local contributions
    edocc=   1.38129730E+01     enl0=   1.06136475E+02   enl1=  -5.89983843E+02
 1-9 gives the relaxation energy (to be shifted if some occ is /=2.0)
   erelax=  -3.64562800E+02
 10,11,12 Non-relaxation  contributions : frozen-wavefunctions and Ewald
 fr.local=   5.03481202E+01 fr.nonlo=   3.02374634E+02  Ewald=   2.25741165E+01
 13,14 Frozen wf xc core corrections (1) and (2)
 frxc 1  =  -1.12048086E+01  frxc 2 =   9.40506583E+00
 Resulting in :
 2DEtotal=    0.8934327980E+01 Ha. Also 2DEtotal=    0.243115428184E+03 eV
    (2DErelax=   -3.6456279956E+02 Ha. 2DEnonrelax=    3.7349712754E+02 Ha)
    (  non-var. 2DEtotal :    8.9343279796E+00 Ha)

================================================================================

 ---- first-order wavefunction calculations are completed ----


 ==> Compute Derivative Database <==
  
  2nd-order matrix (non-cartesian coordinates, masses not included,
   asr not included )
     j1       j2             matrix element
  dir pert dir pert     real part     imaginary part
  
   1    1   1    1        12.0834365042         0.0000000077
   1    1   2    1         4.4671643835         0.0000000000
   1    1   3    1         4.4671643835         0.0000000000
   1    1   1    2        -3.5733885827         0.0000000000
   1    1   2    2        -2.9168995645         0.0000000000
   1    1   3    2        -2.9168995645         0.0000000000
  
   2    1   1    1         4.4671643835         0.0000000000
   2    1   2    1         8.9343287671         0.0000000000
   2    1   3    1         4.4671643835         0.0000000000
   2    1   1    2        -2.9168995645         0.0000000000
   2    1   2    2        -5.8337991290         0.0000000000
   2    1   3    2        -2.9168995645         0.0000000000
  
   3    1   1    1         4.4671643835         0.0000000000
   3    1   2    1         4.4671643835         0.0000000000
   3    1   3    1         8.9343287671         0.0000000000
   3    1   1    2        -2.9168995645         0.0000000000
   3    1   2    2        -2.9168995645         0.0000000000
   3    1   3    2        -5.8337991290         0.0000000000
  
   1    2   1    1        -3.5733885827         0.0000000000
   1    2   2    1        -2.9168995645         0.0000000000
   1    2   3    1        -2.9168995645         0.0000000000
   1    2   1    2        12.0834365042         0.0000000077
   1    2   2    2         4.4671643835         0.0000000000
   1    2   3    2         4.4671643835         0.0000000000
  
   2    2   1    1        -2.9168995645         0.0000000000
   2    2   2    1        -5.8337991290         0.0000000000
   2    2   3    1        -2.9168995645         0.0000000000
   2    2   1    2         4.4671643835         0.0000000000
   2    2   2    2         8.9343287671         0.0000000000
   2    2   3    2         4.4671643835         0.0000000000
  
   3    2   1    1        -2.9168995645         0.0000000000
   3    2   2    1        -2.9168995645         0.0000000000
   3    2   3    1        -5.8337991290         0.0000000000
   3    2   1    2         4.4671643835         0.0000000000
   3    2   2    2         4.4671643835         0.0000000000
   3    2   3    2         8.9343287671         0.0000000000
  
  
  Dynamical matrix, in cartesian coordinates,
   if specified in the inputs, asr has been imposed
     j1       j2             matrix element
  dir pert dir pert     real part    imaginary part
  
   1    1   1    1         0.4611586100         0.0000000002
   1    1   2    1        -0.0690957449        -0.0000000002
   1    1   3    1        -0.0690957449        -0.0000000002
   1    1   1    2        -0.2064066067         0.0000000000
   1    1   2    2        -0.0495965091         0.0000000000
   1    1   3    2        -0.0495965091         0.0000000000
  
   2    1   1    1        -0.0690957449        -0.0000000002
   2    1   2    1         0.4611586100         0.0000000002
   2    1   3    1         0.0690957449         0.0000000002
   2    1   1    2        -0.0495965091         0.0000000000
   2    1   2    2        -0.2064066067         0.0000000000
   2    1   3    2         0.0495965091        -0.0000000000
  
   3    1   1    1        -0.0690957449        -0.0000000002
   3    1   2    1         0.0690957449         0.0000000002
   3    1   3    1         0.4611586100         0.0000000002
   3    1   1    2        -0.0495965091         0.0000000000
   3    1   2    2         0.0495965091        -0.0000000000
   3    1   3    2        -0.2064066067         0.0000000000
  
   1    2   1    1        -0.2064066067         0.0000000000
   1    2   2    1        -0.0495965091         0.0000000000
   1    2   3    1        -0.0495965091         0.0000000000
   1    2   1    2         0.4611586100         0.0000000002
   1    2   2    2        -0.0690957449        -0.0000000002
   1    2   3    2        -0.0690957449        -0.0000000002
  
   2    2   1    1        -0.0495965091         0.0000000000
   2    2   2    1        -0.2064066067         0.0000000000
   2    2   3    1         0.0495965091        -0.0000000000
   2    2   1    2        -0.0690957449        -0.0000000002
   2    2   2    2         0.4611586100         0.0000000002
   2    2   3    2         0.0690957449         0.0000000002
  
   3    2   1    1        -0.0495965091         0.0000000000
   3    2   2    1         0.0495965091        -0.0000000000
   3    2   3    1        -0.2064066067         0.0000000000
   3    2   1    2        -0.0690957449        -0.0000000002
   3    2   2    2         0.0690957449         0.0000000002
   3    2   3    2         0.4611586100         0.0000000002

  Phonon wavevector (reduced coordinates) :  0.50000  0.00000  0.00000
 Phonon energies in Hartree :
   2.492845E-03  2.492845E-03  4.741035E-03  5.440515E-03  5.440515E-03
   5.680755E-03
 Phonon frequencies in cm-1    :
-  5.471161E+02  5.471161E+02  1.040537E+03  1.194055E+03  1.194055E+03
-  1.246782E+03

================================================================================
== DATASET  3 ==================================================================
-   mpi_nproc: 4, omp_nthreads: -1 (-1 if OMP is not activated)


--- !DatasetInfo
iteration_state: {dtset: 3, }
dimensions: {natom: 2, nkpt: 512, mband: 8, nsppol: 1, nspinor: 1, nspden: 1, mpw: 1124, }
cutoff_energies: {ecut:  45.0, pawecutdg:  -1.0, }
electrons: {nelect:   8.00000000E+00, charge:   0.00000000E+00, occopt:   1.00000000E+00, tsmear:   1.00000000E-02, }
meta: {optdriver: 1, rfphon: 1, }
...

 mkfilename: getwfk from: groundstateo_WFK.nc

 Exchange-correlation functional for the present dataset will be:
  GGA: Perdew-Burke-Ernzerhof functional - ixc=11
 Citation for XC functional:
  J.P.Perdew, K.Burke, M.Ernzerhof, PRL 77, 3865 (1996)

 Real(R)+Recip(G) space primitive vectors, cartesian coordinates (Bohr,Bohr^-1):
 R(1)=  0.0000000  3.3755000  3.3755000  G(1)= -0.1481262  0.1481262  0.1481262
 R(2)=  3.3755000  0.0000000  3.3755000  G(2)=  0.1481262 -0.1481262  0.1481262
 R(3)=  3.3755000  3.3755000  0.0000000  G(3)=  0.1481262  0.1481262 -0.1481262
 Unit cell volume ucvol=  7.6920896E+01 bohr^3
 Angles (23,13,12)=  6.00000000E+01  6.00000000E+01  6.00000000E+01 degrees
 setup1 : take into account q-point for computing boxcut.

 getcut: wavevector=  0.5000  0.5000  0.0000  ngfft=  30  30  30
         ecut(hartree)=     45.000   => boxcut(ratio)=   2.01294
--------------------------------------------------------------------------------


 ==>  initialize data related to q vector <== 

 The list of irreducible perturbations for this q vector is:
    1)    idir= 1    ipert=   1

================================================================================

 The perturbation idir=   2  ipert=   1 is
 symmetric of a previously calculated perturbation.
 So, its SCF calculation is not needed.


 The perturbation idir=   3  ipert=   1 is
 symmetric of a previously calculated perturbation.
 So, its SCF calculation is not needed.


 The perturbation idir=   1  ipert=   2 is
 symmetric of a previously calculated perturbation.
 So, its SCF calculation is not needed.


 The perturbation idir=   2  ipert=   2 is
 symmetric of a previously calculated perturbation.
 So, its SCF calculation is not needed.


 The perturbation idir=   3  ipert=   2 is
 symmetric of a previously calculated perturbation.
 So, its SCF calculation is not needed.


--------------------------------------------------------------------------------
 Perturbation wavevector (in red.coord.)   0.500000  0.500000  0.000000
 Perturbation : displacement of atom   1   along direction   1
 The set of symmetries contains only one element for this perturbation.
 symkpt : not enough symmetry to change the number of k points.

--------------------------------------------------------------------------------

--------------------------------------------------------------------------------

 Initialisation of the first-order wave-functions :
  ireadwf=   0

--- !BeginCycle
iteration_state: {dtset: 3, }
solver: {iscf: 7, nstep: 100, nline: 4, wfoptalg: 0, }
tolerances: {tolvrs: 1.00E-18, }
...

     iter   2DEtotal(Ha)        deltaE(Ha) residm    vres2
-ETOT  1   12.777329010653     -3.830E+02 6.162E+00 5.082E+03
 ETOT  2   12.011300813559     -7.660E-01 5.442E-01 7.905E+02
 ETOT  3   11.858591823161     -1.527E-01 3.712E-02 6.172E+01
 ETOT  4   11.846861845908     -1.173E-02 1.585E-03 3.827E-01
 ETOT  5   11.846819577785     -4.227E-05 2.513E-04 2.206E-03
 ETOT  6   11.846819148041     -4.297E-07 1.807E-05 2.819E-05
 ETOT  7   11.846819141565     -6.476E-09 2.603E-06 6.181E-07
 ETOT  8   11.846819141459     -1.069E-10 2.329E-07 2.050E-08
 ETOT  9   11.846819141459      5.684E-14 3.370E-08 3.164E-09
 ETOT 10   11.846819141455     -3.467E-12 3.058E-09 1.790E-11
 ETOT 11   11.846819141455      1.137E-13 4.414E-10 2.054E-13
 ETOT 12   11.846819141455      2.274E-13 4.041E-11 2.427E-15
 ETOT 13   11.846819141456      2.274E-13 5.838E-12 9.965E-17
 ETOT 14   11.846819141458      2.274E-12 5.356E-13 3.076E-19

 At SCF step   14       vres2   =  3.08E-19 < tolvrs=  1.00E-18 =>converged.
================================================================================

 ----iterations are completed or convergence reached----

 Mean square residual over all n,k,spin=   66.884E-17; max=  53.558E-14

 Thirteen components of 2nd-order total energy (hartree) are
 1,2,3: 0th-order hamiltonian combined with 1st-order wavefunctions
     kin0=   3.73727203E+02 eigvalue=  -9.79736191E+00  local=  -1.35104852E+02
 4,5,6: 1st-order hamiltonian combined with 1st and 0th-order wfs
 loc psp =  -1.82091546E+02  Hartree=   4.68503314E+01     xc=  -1.07933479E+01
 note that "loc psp" includes a xc core correction that could be resolved
 7,8,9: eventually, occupation + non-local contributions
    edocc=   1.27151296E+01     enl0=   1.06324816E+02   enl1=  -5.85752290E+02
 1-9 gives the relaxation energy (to be shifted if some occ is /=2.0)
   erelax=  -3.83921918E+02
 10,11,12 Non-relaxation  contributions : frozen-wavefunctions and Ewald
 fr.local=   5.03481202E+01 fr.nonlo=   3.02374634E+02  Ewald=   4.48457263E+01
 13,14 Frozen wf xc core corrections (1) and (2)
 frxc 1  =  -1.12048086E+01  frxc 2 =   9.40506583E+00
 Resulting in :
 2DEtotal=    0.1184681914E+02 Ha. Also 2DEtotal=    0.322368343178E+03 eV
    (2DErelax=   -3.8392191822E+02 Ha. 2DEnonrelax=    3.9576873737E+02 Ha)
    (  non-var. 2DEtotal :    1.1846819141E+01 Ha)

================================================================================

 ---- first-order wavefunction calculations are completed ----


 ==> Compute Derivative Database <==
  
  2nd-order matrix (non-cartesian coordinates, masses not included,
   asr not included )
     j1       j2             matrix element
  dir pert dir pert     real part     imaginary part
  
   1    1   1    1        11.8468199030         0.0000000000
   1    1   2    1         7.3625972420         0.0000000000
   1    1   3    1         4.4842226611         0.0000000000
   1    1   1    2        -0.0000000000         0.0000000000
   1    1   2    2        -1.3119699424        -0.0000000000
   1    1   3    2        -1.3119699424        -0.0000000000
  
   2    1   1    1         7.3625972420         0.0000000000
   2    1   2    1        11.8468199030         0.0000000000
   2    1   3    1         4.4842226611         0.0000000000
   2    1   1    2        -1.3119699424        -0.0000000000
   2    1   2    2        -0.0000000000         0.0000000000
   2    1   3    2        -1.3119699424        -0.0000000000
  
   3    1   1    1         4.4842226611         0.0000000000
   3    1   2    1         4.4842226611         0.0000000000
   3    1   3    1         8.9684453221         0.0000000000
   3    1   1    2        -1.3119699424        -0.0000000000
   3    1   2    2        -1.3119699424        -0.0000000000
   3    1   3    2        -2.6239398849        -0.0000000001
  
   1    2   1    1        -0.0000000000        -0.0000000000
   1    2   2    1        -1.3119699424        -0.0000000000
   1    2   3    1        -1.3119699424        -0.0000000000
   1    2   1    2        11.8468199030         0.0000000000
   1    2   2    2         7.3625972420         0.0000000000
   1    2   3    2         4.4842226611         0.0000000000
  
   2    2   1    1        -1.3119699424        -0.0000000000
   2    2   2    1        -0.0000000000        -0.0000000000
   2    2   3    1        -1.3119699424        -0.0000000000
   2    2   1    2         7.3625972420         0.0000000000
   2    2   2    2        11.8468199030         0.0000000000
   2    2   3    2         4.4842226611         0.0000000000
  
   3    2   1    1        -1.3119699424        -0.0000000000
   3    2   2    1        -1.3119699424        -0.0000000000
   3    2   3    1        -2.6239398849        -0.0000000001
   3    2   1    2         4.4842226611         0.0000000000
   3    2   2    2         4.4842226611         0.0000000000
   3    2   3    2         8.9684453221         0.0000000000
  
  
  Dynamical matrix, in cartesian coordinates,
   if specified in the inputs, asr has been imposed
     j1       j2             matrix element
  dir pert dir pert     real part    imaginary part
  
   1    1   1    1         0.3935599932         0.0000000000
   1    1   2    1        -0.0000000000         0.0000000000
   1    1   3    1         0.0000000000         0.0000000000
   1    1   1    2        -0.0000000000         0.0000000000
   1    1   2    2        -0.1151456831        -0.0000000000
   1    1   3    2         0.0000000000         0.0000000000
  
   2    1   1    1        -0.0000000000         0.0000000000
   2    1   2    1         0.3935599932         0.0000000000
   2    1   3    1         0.0000000000         0.0000000000
   2    1   1    2        -0.1151456831        -0.0000000000
   2    1   2    2         0.0000000000         0.0000000000
   2    1   3    2        -0.0000000000        -0.0000000000
  
   3    1   1    1         0.0000000000         0.0000000000
   3    1   2    1        -0.0000000000         0.0000000000
   3    1   3    1         0.6461819449         0.0000000000
   3    1   1    2         0.0000000000         0.0000000000
   3    1   2    2        -0.0000000000        -0.0000000000
   3    1   3    2        -0.0000000000         0.0000000000
  
   1    2   1    1        -0.0000000000        -0.0000000000
   1    2   2    1        -0.1151456831        -0.0000000000
   1    2   3    1         0.0000000000        -0.0000000000
   1    2   1    2         0.3935599932         0.0000000000
   1    2   2    2        -0.0000000000         0.0000000000
   1    2   3    2         0.0000000000         0.0000000000
  
   2    2   1    1        -0.1151456831        -0.0000000000
   2    2   2    1         0.0000000000        -0.0000000000
   2    2   3    1        -0.0000000000         0.0000000000
   2    2   1    2        -0.0000000000         0.0000000000
   2    2   2    2         0.3935599932         0.0000000000
   2    2   3    2        -0.0000000000         0.0000000000
  
   3    2   1    1         0.0000000000        -0.0000000000
   3    2   2    1        -0.0000000000         0.0000000000
   3    2   3    1        -0.0000000000        -0.0000000000
   3    2   1    2         0.0000000000         0.0000000000
   3    2   2    2         0.0000000000         0.0000000000
   3    2   3    2         0.6461819449         0.0000000000

  Phonon wavevector (reduced coordinates) :  0.50000  0.50000  0.00000
 Phonon energies in Hartree :
   3.565957E-03  3.565957E-03  4.820184E-03  4.820184E-03  5.432601E-03
   5.432601E-03
 Phonon frequencies in cm-1    :
-  7.826372E+02  7.826372E+02  1.057908E+03  1.057908E+03  1.192318E+03
-  1.192318E+03

== END DATASET(S) ==============================================================
================================================================================
  
 -outvars: echo values of variables after computation  --------
-          iomode           3
            acell      6.7510000000E+00  6.7510000000E+00  6.7510000000E+00 Bohr
              amu      1.20110000E+01
           diemac      1.20000000E+01
             ecut      4.50000000E+01 Hartree
           etotal1     8.6213344446E+00
           etotal2     8.9343279796E+00
           etotal3     1.1846819141E+01
            fcart1     0.0000000000E+00  0.0000000000E+00  0.0000000000E+00
                       0.0000000000E+00  0.0000000000E+00  0.0000000000E+00
            fcart2     0.0000000000E+00  0.0000000000E+00  0.0000000000E+00
                       0.0000000000E+00  0.0000000000E+00  0.0000000000E+00
            fcart3     0.0000000000E+00  0.0000000000E+00  0.0000000000E+00
                       0.0000000000E+00  0.0000000000E+00  0.0000000000E+00
-          fftalg         312
           istwfk        1    0    0    0    1    0    0    0    0    0
                         0    0    0    0    0    0    0    0    0    0
                         0    0    0    0    0    0    0    0    0    0
                         0    0    1    0    0    0    1    0    0    0
                         0    0    0    0    0    0    0    0    0    0
                       outvar_i_n : Printing only first  50 k-points.
              ixc          11
           jdtset        1    2    3
              kpt      0.00000000E+00  0.00000000E+00  0.00000000E+00
                       1.25000000E-01  0.00000000E+00  0.00000000E+00
                       2.50000000E-01  0.00000000E+00  0.00000000E+00
                       3.75000000E-01  0.00000000E+00  0.00000000E+00
                       5.00000000E-01  0.00000000E+00  0.00000000E+00
                      -3.75000000E-01  0.00000000E+00  0.00000000E+00
                      -2.50000000E-01  0.00000000E+00  0.00000000E+00
                      -1.25000000E-01  0.00000000E+00  0.00000000E+00
                       0.00000000E+00  1.25000000E-01  0.00000000E+00
                       1.25000000E-01  1.25000000E-01  0.00000000E+00
                       2.50000000E-01  1.25000000E-01  0.00000000E+00
                       3.75000000E-01  1.25000000E-01  0.00000000E+00
                       5.00000000E-01  1.25000000E-01  0.00000000E+00
                      -3.75000000E-01  1.25000000E-01  0.00000000E+00
                      -2.50000000E-01  1.25000000E-01  0.00000000E+00
                      -1.25000000E-01  1.25000000E-01  0.00000000E+00
                       0.00000000E+00  2.50000000E-01  0.00000000E+00
                       1.25000000E-01  2.50000000E-01  0.00000000E+00
                       2.50000000E-01  2.50000000E-01  0.00000000E+00
                       3.75000000E-01  2.50000000E-01  0.00000000E+00
                       5.00000000E-01  2.50000000E-01  0.00000000E+00
                      -3.75000000E-01  2.50000000E-01  0.00000000E+00
                      -2.50000000E-01  2.50000000E-01  0.00000000E+00
                      -1.25000000E-01  2.50000000E-01  0.00000000E+00
                       0.00000000E+00  3.75000000E-01  0.00000000E+00
                       1.25000000E-01  3.75000000E-01  0.00000000E+00
                       2.50000000E-01  3.75000000E-01  0.00000000E+00
                       3.75000000E-01  3.75000000E-01  0.00000000E+00
                       5.00000000E-01  3.75000000E-01  0.00000000E+00
                      -3.75000000E-01  3.75000000E-01  0.00000000E+00
                      -2.50000000E-01  3.75000000E-01  0.00000000E+00
                      -1.25000000E-01  3.75000000E-01  0.00000000E+00
                       0.00000000E+00  5.00000000E-01  0.00000000E+00
                       1.25000000E-01  5.00000000E-01  0.00000000E+00
                       2.50000000E-01  5.00000000E-01  0.00000000E+00
                       3.75000000E-01  5.00000000E-01  0.00000000E+00
                       5.00000000E-01  5.00000000E-01  0.00000000E+00
                      -3.75000000E-01  5.00000000E-01  0.00000000E+00
                      -2.50000000E-01  5.00000000E-01  0.00000000E+00
                      -1.25000000E-01  5.00000000E-01  0.00000000E+00
                       0.00000000E+00 -3.75000000E-01  0.00000000E+00
                       1.25000000E-01 -3.75000000E-01  0.00000000E+00
                       2.50000000E-01 -3.75000000E-01  0.00000000E+00
                       3.75000000E-01 -3.75000000E-01  0.00000000E+00
                       5.00000000E-01 -3.75000000E-01  0.00000000E+00
                      -3.75000000E-01 -3.75000000E-01  0.00000000E+00
                      -2.50000000E-01 -3.75000000E-01  0.00000000E+00
                      -1.25000000E-01 -3.75000000E-01  0.00000000E+00
                       0.00000000E+00 -2.50000000E-01  0.00000000E+00
                       1.25000000E-01 -2.50000000E-01  0.00000000E+00
                       outvar_i_n : Printing only first  50 k-points.
           kptopt           3
         kptrlatt        8    0    0      0    8    0      0    0    8
          kptrlen      3.81894230E+01
P           mkmem         128
P          mkqmem         128
P          mk1mem         128
            natom           2
            nband           8
           ndtset           3
            ngfft          30      30      30
             nkpt         512
             nqpt           1
            nstep         100
             nsym          48
           ntypat           1
              occ      2.000000  2.000000  2.000000  2.000000  0.000000  0.000000
                       0.000000  0.000000
        optdriver           1
           prteig           0
           prtpot           1
            prtwf           0
              qpt1     0.00000000E+00  0.00000000E+00  0.00000000E+00
              qpt2     5.00000000E-01  0.00000000E+00  0.00000000E+00
              qpt3     5.00000000E-01  5.00000000E-01  0.00000000E+00
           rfphon           1
            rprim      0.0000000000E+00  5.0000000000E-01  5.0000000000E-01
                       5.0000000000E-01  0.0000000000E+00  5.0000000000E-01
                       5.0000000000E-01  5.0000000000E-01  0.0000000000E+00
          spgroup         227
           strten1     0.0000000000E+00  0.0000000000E+00  0.0000000000E+00
                       0.0000000000E+00  0.0000000000E+00  0.0000000000E+00
           strten2     0.0000000000E+00  0.0000000000E+00  0.0000000000E+00
                       0.0000000000E+00  0.0000000000E+00  0.0000000000E+00
           strten3     0.0000000000E+00  0.0000000000E+00  0.0000000000E+00
                       0.0000000000E+00  0.0000000000E+00  0.0000000000E+00
           symrel      1  0  0   0  1  0   0  0  1      -1  0  0   0 -1  0   0  0 -1
                       0 -1  1   0 -1  0   1 -1  0       0  1 -1   0  1  0  -1  1  0
                      -1  0  0  -1  0  1  -1  1  0       1  0  0   1  0 -1   1 -1  0
                       0  1 -1   1  0 -1   0  0 -1       0 -1  1  -1  0  1   0  0  1
                      -1  0  0  -1  1  0  -1  0  1       1  0  0   1 -1  0   1  0 -1
                       0 -1  1   1 -1  0   0 -1  0       0  1 -1  -1  1  0   0  1  0
                       1  0  0   0  0  1   0  1  0      -1  0  0   0  0 -1   0 -1  0
                       0  1 -1   0  0 -1   1  0 -1       0 -1  1   0  0  1  -1  0  1
                      -1  0  1  -1  1  0  -1  0  0       1  0 -1   1 -1  0   1  0  0
                       0 -1  0   1 -1  0   0 -1  1       0  1  0  -1  1  0   0  1 -1
                       1  0 -1   0  0 -1   0  1 -1      -1  0  1   0  0  1   0 -1  1
                       0  1  0   0  0  1   1  0  0       0 -1  0   0  0 -1  -1  0  0
                       1  0 -1   0  1 -1   0  0 -1      -1  0  1   0 -1  1   0  0  1
                       0 -1  0   0 -1  1   1 -1  0       0  1  0   0  1 -1  -1  1  0
                      -1  0  1  -1  0  0  -1  1  0       1  0 -1   1  0  0   1 -1  0
                       0  1  0   1  0  0   0  0  1       0 -1  0  -1  0  0   0  0 -1
                       0  0 -1   0  1 -1   1  0 -1       0  0  1   0 -1  1  -1  0  1
                       1 -1  0   0 -1  1   0 -1  0      -1  1  0   0  1 -1   0  1  0
                       0  0  1   1  0  0   0  1  0       0  0 -1  -1  0  0   0 -1  0
                      -1  1  0  -1  0  0  -1  0  1       1 -1  0   1  0  0   1  0 -1
                       0  0  1   0  1  0   1  0  0       0  0 -1   0 -1  0  -1  0  0
                       1 -1  0   0 -1  0   0 -1  1      -1  1  0   0  1  0   0  1 -1
                       0  0 -1   1  0 -1   0  1 -1       0  0  1  -1  0  1   0 -1  1
                      -1  1  0  -1  0  1  -1  0  0       1 -1  0   1  0 -1   1  0  0
            tnons      0.0000000  0.0000000  0.0000000     0.2500000  0.2500000  0.2500000
                       0.0000000  0.0000000  0.0000000     0.2500000  0.2500000  0.2500000
                       0.0000000  0.0000000  0.0000000     0.2500000  0.2500000  0.2500000
                       0.0000000  0.0000000  0.0000000     0.2500000  0.2500000  0.2500000
                       0.0000000  0.0000000  0.0000000     0.2500000  0.2500000  0.2500000
                       0.0000000  0.0000000  0.0000000     0.2500000  0.2500000  0.2500000
                       0.0000000  0.0000000  0.0000000     0.2500000  0.2500000  0.2500000
                       0.0000000  0.0000000  0.0000000     0.2500000  0.2500000  0.2500000
                       0.0000000  0.0000000  0.0000000     0.2500000  0.2500000  0.2500000
                       0.0000000  0.0000000  0.0000000     0.2500000  0.2500000  0.2500000
                       0.0000000  0.0000000  0.0000000     0.2500000  0.2500000  0.2500000
                       0.0000000  0.0000000  0.0000000     0.2500000  0.2500000  0.2500000
                       0.0000000  0.0000000  0.0000000     0.2500000  0.2500000  0.2500000
                       0.0000000  0.0000000  0.0000000     0.2500000  0.2500000  0.2500000
                       0.0000000  0.0000000  0.0000000     0.2500000  0.2500000  0.2500000
                       0.0000000  0.0000000  0.0000000     0.2500000  0.2500000  0.2500000
                       0.0000000  0.0000000  0.0000000     0.2500000  0.2500000  0.2500000
                       0.0000000  0.0000000  0.0000000     0.2500000  0.2500000  0.2500000
                       0.0000000  0.0000000  0.0000000     0.2500000  0.2500000  0.2500000
                       0.0000000  0.0000000  0.0000000     0.2500000  0.2500000  0.2500000
                       0.0000000  0.0000000  0.0000000     0.2500000  0.2500000  0.2500000
                       0.0000000  0.0000000  0.0000000     0.2500000  0.2500000  0.2500000
                       0.0000000  0.0000000  0.0000000     0.2500000  0.2500000  0.2500000
                       0.0000000  0.0000000  0.0000000     0.2500000  0.2500000  0.2500000
           tolvrs      1.00000000E-18
            typat      1  1
              wtk        0.00195    0.00195    0.00195    0.00195    0.00195    0.00195
                         0.00195    0.00195    0.00195    0.00195    0.00195    0.00195
                         0.00195    0.00195    0.00195    0.00195    0.00195    0.00195
                         0.00195    0.00195    0.00195    0.00195    0.00195    0.00195
                         0.00195    0.00195    0.00195    0.00195    0.00195    0.00195
                         0.00195    0.00195    0.00195    0.00195    0.00195    0.00195
                         0.00195    0.00195    0.00195    0.00195    0.00195    0.00195
                         0.00195    0.00195    0.00195    0.00195    0.00195    0.00195
                         0.00195    0.00195
                       outvars : Printing only first  50 k-points.
           xangst      0.0000000000E+00  0.0000000000E+00  0.0000000000E+00
                       8.9311883380E-01  8.9311883380E-01  8.9311883380E-01
            xcart      0.0000000000E+00  0.0000000000E+00  0.0000000000E+00
                       1.6877500000E+00  1.6877500000E+00  1.6877500000E+00
             xred      0.0000000000E+00  0.0000000000E+00  0.0000000000E+00
                       2.5000000000E-01  2.5000000000E-01  2.5000000000E-01
            znucl        6.00000

================================================================================


- Timing analysis has been suppressed with timopt=0



================================================================================

 Suggested references for the acknowledgment of ABINIT usage.

 The users of ABINIT have little formal obligations with respect to the ABINIT group
 (those specified in the GNU General Public License, http://www.gnu.org/copyleft/gpl.txt).
 However, it is common practice in the scientific literature,
 to acknowledge the efforts of people that have made the research possible.
 In this spirit, please find below suggested citations of work written by ABINIT developers,
 corresponding to implementations inside of ABINIT that you have used in the present run.
 Note also that it will be of great value to readers of publications presenting these results,
 to read papers enabling them to understand the theoretical formalism and details
 of the ABINIT implementation.
 For information on why they are suggested, see also https://docs.abinit.org/theory/acknowledgments.
-
- [1] Specification of an extensible and portable file format for electronic structure and crystallographic data
- X. Gonze, C.-O. Almbladh, A. Cucca, D. Caliste, C. Freysoldt, M. Marques, V. Olevano, Y. Pouillon, M.J. Verstraete,
- Comput. Material Science 43, 1056 (2008).
- Comment: to be cited in case the ETSF_IO file format is used, i.e. iomode=3.
- DOI and bibtex: see https://docs.abinit.org/theory/bibliography/#gonze2008
-
- [2] The Abinit project: Impact, environment and recent developments.
- Computer Phys. Comm. 248, 107042 (2020).
- X.Gonze, B. Amadon, G. Antonius, F.Arnardi, L.Baguet, J.-M.Beuken,
- J.Bieder, F.Bottin, J.Bouchet, E.Bousquet, N.Brouwer, F.Bruneval,
- G.Brunin, T.Cavignac, J.-B. Charraud, Wei Chen, M.Cote, S.Cottenier,
- J.Denier, G.Geneste, Ph.Ghosez, M.Giantomassi, Y.Gillet, O.Gingras,
- D.R.Hamann, G.Hautier, Xu He, N.Helbig, N.Holzwarth, Y.Jia, F.Jollet,
- W.Lafargue-Dit-Hauret, K.Lejaeghere, M.A.L.Marques, A.Martin, C.Martins,
- H.P.C. Miranda, F.Naccarato, K. Persson, G.Petretto, V.Planes, Y.Pouillon,
- S.Prokhorenko, F.Ricci, G.-M.Rignanese, A.H.Romero, M.M.Schmitt, M.Torrent,
- M.J.van Setten, B.Van Troeye, M.J.Verstraete, G.Zerah and J.W.Zwanzig
- Comment: the fifth generic paper describing the ABINIT project.
- Note that a version of this paper, that is not formatted for Computer Phys. Comm. 
- is available at https://www.abinit.org/sites/default/files/ABINIT20.pdf .
- The licence allows the authors to put it on the Web.
- DOI and bibtex: see https://docs.abinit.org/theory/bibliography/#gonze2020
-
- [3] First-principles responses of solids to atomic displacements and homogeneous electric fields:,
- implementation of a conjugate-gradient algorithm. X. Gonze, Phys. Rev. B55, 10337 (1997).
- Comment: Non-vanishing rfphon and/or rfelfd, in the norm-conserving case.
- DOI and bibtex: see https://docs.abinit.org/theory/bibliography/#gonze1997
-
- [4] Dynamical matrices, Born effective charges, dielectric permittivity tensors, and ,
- interatomic force constants from density-functional perturbation theory,
- X. Gonze and C. Lee, Phys. Rev. B55, 10355 (1997).
- Comment: Non-vanishing rfphon and/or rfelfd, in the norm-conserving case.
- DOI and bibtex: see https://docs.abinit.org/theory/bibliography/#gonze1997a
-
- [5] Optimized norm-conserving Vanderbilt pseudopotentials.
- D.R. Hamann, Phys. Rev. B 88, 085117 (2013).
- Comment: Some pseudopotential generated using the ONCVPSP code were used.
- DOI and bibtex: see https://docs.abinit.org/theory/bibliography/#hamann2013
-
- [6] ABINIT: Overview, and focus on selected capabilities
- J. Chem. Phys. 152, 124102 (2020).
- A. Romero, D.C. Allan, B. Amadon, G. Antonius, T. Applencourt, L.Baguet,
- J.Bieder, F.Bottin, J.Bouchet, E.Bousquet, F.Bruneval,
- G.Brunin, D.Caliste, M.Cote,
- J.Denier, C. Dreyer, Ph.Ghosez, M.Giantomassi, Y.Gillet, O.Gingras,
- D.R.Hamann, G.Hautier, F.Jollet, G. Jomard,
- A.Martin, 
- H.P.C. Miranda, F.Naccarato, G.Petretto, N.A. Pike, V.Planes,
- S.Prokhorenko, T. Rangel, F.Ricci, G.-M.Rignanese, M.Royo, M.Stengel, M.Torrent,
- M.J.van Setten, B.Van Troeye, M.J.Verstraete, J.Wiktor, J.W.Zwanziger, and X.Gonze.
- Comment: a global overview of ABINIT, with focus on selected capabilities .
- Note that a version of this paper, that is not formatted for J. Chem. Phys 
- is available at https://www.abinit.org/sites/default/files/ABINIT20_JPC.pdf .
- The licence allows the authors to put it on the Web.
- DOI and bibtex: see https://docs.abinit.org/theory/bibliography/#romero2020
-
- [7] Recent developments in the ABINIT software package.
- Computer Phys. Comm. 205, 106 (2016).
- X.Gonze, F.Jollet, F.Abreu Araujo, D.Adams, B.Amadon, T.Applencourt,
- C.Audouze, J.-M.Beuken, J.Bieder, A.Bokhanchuk, E.Bousquet, F.Bruneval
- D.Caliste, M.Cote, F.Dahm, F.Da Pieve, M.Delaveau, M.Di Gennaro,
- B.Dorado, C.Espejo, G.Geneste, L.Genovese, A.Gerossier, M.Giantomassi,
- Y.Gillet, D.R.Hamann, L.He, G.Jomard, J.Laflamme Janssen, S.Le Roux,
- A.Levitt, A.Lherbier, F.Liu, I.Lukacevic, A.Martin, C.Martins,
- M.J.T.Oliveira, S.Ponce, Y.Pouillon, T.Rangel, G.-M.Rignanese,
- A.H.Romero, B.Rousseau, O.Rubel, A.A.Shukri, M.Stankovski, M.Torrent,
- M.J.Van Setten, B.Van Troeye, M.J.Verstraete, D.Waroquier, J.Wiktor,
- B.Xu, A.Zhou, J.W.Zwanziger.
- Comment: the fourth generic paper describing the ABINIT project.
- Note that a version of this paper, that is not formatted for Computer Phys. Comm. 
- is available at https://www.abinit.org/sites/default/files/ABINIT16.pdf .
- The licence allows the authors to put it on the Web.
- DOI and bibtex: see https://docs.abinit.org/theory/bibliography/#gonze2016
-
- Proc.   0 individual time (sec): cpu=         95.3  wall=         95.5

================================================================================

 Calculation completed.
.Delivered   0 WARNINGs and   0 COMMENTs to log file.
+Overall time at end (sec) : cpu=        381.4  wall=        381.9
- [ALL OK] MEMORY CONSUMPTION REPORT FOR C CODE:
-   There were 144 allocations and 144 deallocations in C code
- [ALL OK] MEMORY CONSUMPTION REPORT FOR FORTRAN CODE:
-   There were 9953452 allocations and 9953452 deallocations in Fortran
-   Remaining memory at the end of the calculation is 0
