  ABINIT 10.3.4.3
  
-instrng: 78 lines of input have been read from file ddb.abi


--- !COMMENT
src_file: m_dtfil.F90
src_line: 1503
message: |
    Output file: ddb.abo already exists.
...


--- !COMMENT
src_file: m_dtfil.F90
src_line: 1527
message: |
    Renaming old: ddb.abo to: ddb.abo0001
...


.Version 10.3.4.3 of ABINIT, released Nov 2024.
.(MPI version, prepared for a aarch64_darwin23.6.0_gnu14.2 computer) 

.Copyright (C) 1998-2024 ABINIT group . 
 ABINIT comes with ABSOLUTELY NO WARRANTY.
 It is free software, and you are welcome to redistribute it
 under certain conditions (GNU General Public License,
 see ~abinit/COPYING or http://www.gnu.org/copyleft/gpl.txt).

 ABINIT is a project of the Universite Catholique de Louvain,
 Corning Inc. and other collaborators, see ~abinit/doc/developers/contributors.txt .
 Please read https://docs.abinit.org/theory/acknowledgments for suggested
 acknowledgments of the ABINIT effort.
 For more information, see https://www.abinit.org .

.Starting date : Thu 23 Jan 2025.
- ( at 10h42 )
  

 ++++++++++++++++++++++++++++++++++++++++++++++++++++++++++++++++++++++++++++++

 === Build Information === 
  Version       : 10.3.4.3
  Build target  : aarch64_darwin23.6.0_gnu14.2
  Build date    : 20250121

 === Compiler Suite === 
  C compiler       : llvm16.0
  C++ compiler     : llvm16.0
  Fortran compiler : gnu14.2
  CFLAGS           : -g -O2 -mtune=native -mcpu=native
  CXXFLAGS         : -g -O2 -mtune=native -mcpu=native
  FCFLAGS          : -g -ffree-line-length-none -fallow-argument-mismatch     -I/Users/giantomassi/git_repos/abinit/_build/fallbacks/install_fb/gnu/14.2/netcdf4/4.9.0/include -I/Users/giantomassi/git_repos/abinit/_build/fallbacks/install_fb/gnu/14.2/hdf5/1.10.9/include -I/Users/giantomassi/git_repos/abinit/_build/fallbacks/install_fb/gnu/14.2/netcdf4_fortran/4.6.0/include -I/Users/giantomassi/git_repos/abinit/_build/fallbacks/install_fb/gnu/14.2/netcdf4_fortran/4.6.0/include   -I/Users/giantomassi/CODES/wannier90-3.1.0/_build/include
  FC_LDFLAGS       : 

 === Optimizations === 
  Debug level        : basic
  Optimization level : standard
  Architecture       : _

 === Multicore === 
  Parallel build : /Users/giantomassi/local/
  Parallel I/O   : 
  openMP support : 
  GPU support    : 

 === Connectors / Fallbacks === 
  LINALG flavor  : netlib+openblas
  FFT flavor     : fftw3
  HDF5           : yes
  NetCDF         : yes
  NetCDF Fortran : yes
  LibXC          : yes
  Wannier90      : yes

 === Experimental features === 
  Exports             : @enable_exports@
  GW double-precision : yes

 ++++++++++++++++++++++++++++++++++++++++++++++++++++++++++++++++++++++++++++++


 ++++++++++++++++++++++++++++++++++++++++++++++++++++++++++++++++++++++++++++++
 Default optimizations:
   -O2 -march=native


 Optimizations for 43_ptgroups:
   -O0


 ++++++++++++++++++++++++++++++++++++++++++++++++++++++++++++++++++++++++++++++


 ++++++++++++++++++++++++++++++++++++++++++++++++++++++++++++++++++++++++++++++
 CPP options activated during the build:

                   CC_LLVM                  CXX_LLVM                    FC_GNU
 
 HAVE_FC_ALLOCATABLE_DT...             HAVE_FC_ASYNC         HAVE_FC_BACKTRACE
 
  HAVE_FC_COMMAND_ARGUMENT      HAVE_FC_COMMAND_LINE        HAVE_FC_CONTIGUOUS
 
           HAVE_FC_CPUTIME              HAVE_FC_EXIT             HAVE_FC_FLUSH
 
             HAVE_FC_GAMMA            HAVE_FC_GETENV   HAVE_FC_IEEE_ARITHMETIC
 
   HAVE_FC_IEEE_EXCEPTIONS          HAVE_FC_INT_QUAD             HAVE_FC_IOMSG
 
     HAVE_FC_ISO_C_BINDING  HAVE_FC_ISO_FORTRAN_2008        HAVE_FC_LONG_LINES
 
        HAVE_FC_MOVE_ALLOC  HAVE_FC_ON_THE_FLY_SHAPE           HAVE_FC_PRIVATE
 
         HAVE_FC_PROTECTED           HAVE_FC_SHIFTLR         HAVE_FC_STREAM_IO
 
            HAVE_FC_SYSTEM                HAVE_FFTW3          HAVE_FORTRAN2003
 
               HAVE_GW_DPC                 HAVE_HDF5             HAVE_HDF5_MPI
 
        HAVE_LIBPAW_ABINIT      HAVE_LIBTETRA_ABINIT                HAVE_LIBXC
 
         HAVE_LINALG_AXPBY         HAVE_LINALG_GEMMT HAVE_LINALG_OPENBLAS_T...
 
     HAVE_LINALG_SCALAPACK        HAVE_MEM_PROFILING                  HAVE_MPI
 
                 HAVE_MPI2         HAVE_MPI2_INPLACE       HAVE_MPI_IALLGATHER
 
       HAVE_MPI_IALLREDUCE        HAVE_MPI_IALLTOALL       HAVE_MPI_IALLTOALLV
 
           HAVE_MPI_IBCAST         HAVE_MPI_IGATHERV        HAVE_MPI_INTEGER16
 
               HAVE_MPI_IO HAVE_MPI_TYPE_CREATE_S...               HAVE_NETCDF
 
       HAVE_NETCDF_FORTRAN   HAVE_NETCDF_FORTRAN_MPI           HAVE_NETCDF_MPI
 
         HAVE_TIMER_ABINIT            HAVE_WANNIER90                            
 ++++++++++++++++++++++++++++++++++++++++++++++++++++++++++++++++++++++++++++++

- input  file    -> ddb.abi
- output file    -> ddb.abo
- root for input  files -> ddbi
- root for output files -> ddbo

 abinit : after writing the name of files
 Netcdf library supports MPI-IO
-instrng: 78 lines of input have been read from file ddb.abi

 For atom type 1, psp file is C.psp8
  read the values zionpsp=  4.0 , pspcod=   8 , lmax=   1

 inpspheads: deduce mpsang = 2, n1xccc = 2501.

======================================================= 
 invars1m : enter jdtset= 1
  xred   is defined in input file
 ingeo: takes atomic coordinates from input array xred

--- !COMMENT
src_file: m_symfind.F90
src_line: 830
message: |
    The tolerance on symmetries =   1.000E-05 is bigger than 1.0e-8.
    In order to avoid spurious effects, the atomic coordinates have been
    symmetrized before storing them in the dataset internal variable.
    So, do not be surprised by the fact that your input variables (xcart, xred, ...)
    do not correspond exactly to the ones echoed by ABINIT, the latter being used to do the calculations.
    This is not a problem per se.
    Still, in order to avoid this symmetrization (e.g. for specific debugging/development), decrease tolsym to 1.0e-8 or lower,
    or (much preferred) use input primitive vectors that are accurate to better than 1.0e-8.
    This message will only be printed once, even if there are other datasets where tolsym is bigger than 1.0e-8.
...


 symlatt: the Bravais lattice is cF (face-centered cubic)
 symspgr: spgroup= 227  Fd -3 m   (=Oh^7)
 symspgr: optical characteristics = isotropic
       Homogeneous q point set in the B.Z.
 Grid q points  :        8
  1)   0.00000000E+00  0.00000000E+00  0.00000000E+00
  2)   5.00000000E-01  0.00000000E+00  0.00000000E+00
  3)   0.00000000E+00  5.00000000E-01  0.00000000E+00
  4)   5.00000000E-01  5.00000000E-01  0.00000000E+00
  5)   0.00000000E+00  0.00000000E+00  5.00000000E-01
  6)   5.00000000E-01  0.00000000E+00  5.00000000E-01
  7)   0.00000000E+00  5.00000000E-01  5.00000000E-01
  8)   5.00000000E-01  5.00000000E-01  5.00000000E-01
 symkpt : the number of k-points, thanks to the symmetries,
 is reduced to     3 .

======================================================= 
 invars1m : enter jdtset= 2
  xred   is defined in input file
 ingeo: takes atomic coordinates from input array xred

 symlatt: the Bravais lattice is cF (face-centered cubic)
 symspgr: spgroup= 227  Fd -3 m   (=Oh^7)
 symspgr: optical characteristics = isotropic
       Homogeneous q point set in the B.Z.
 Grid q points  :        8
  1)   0.00000000E+00  0.00000000E+00  0.00000000E+00
  2)   5.00000000E-01  0.00000000E+00  0.00000000E+00
  3)   0.00000000E+00  5.00000000E-01  0.00000000E+00
  4)   5.00000000E-01  5.00000000E-01  0.00000000E+00
  5)   0.00000000E+00  0.00000000E+00  5.00000000E-01
  6)   5.00000000E-01  0.00000000E+00  5.00000000E-01
  7)   0.00000000E+00  5.00000000E-01  5.00000000E-01
  8)   5.00000000E-01  5.00000000E-01  5.00000000E-01
 symkpt : the number of k-points, thanks to the symmetries,
 is reduced to     3 .

======================================================= 
 invars1m : enter jdtset= 3
  xred   is defined in input file
 ingeo: takes atomic coordinates from input array xred

 symlatt: the Bravais lattice is cF (face-centered cubic)
 symspgr: spgroup= 227  Fd -3 m   (=Oh^7)
 symspgr: optical characteristics = isotropic
       Homogeneous q point set in the B.Z.
 Grid q points  :        8
  1)   0.00000000E+00  0.00000000E+00  0.00000000E+00
  2)   5.00000000E-01  0.00000000E+00  0.00000000E+00
  3)   0.00000000E+00  5.00000000E-01  0.00000000E+00
  4)   5.00000000E-01  5.00000000E-01  0.00000000E+00
  5)   0.00000000E+00  0.00000000E+00  5.00000000E-01
  6)   5.00000000E-01  0.00000000E+00  5.00000000E-01
  7)   0.00000000E+00  5.00000000E-01  5.00000000E-01
  8)   5.00000000E-01  5.00000000E-01  5.00000000E-01
 symkpt : the number of k-points, thanks to the symmetries,
 is reduced to     3 .
 For input ecut=  4.500000E+01 best grid ngfft=      30      30      30
       max ecut=  4.883263E+01

 ==== FFT mesh ====
  FFT mesh divisions ........................    30   30   30
  Augmented FFT divisions ...................    31   31   30
  FFT algorithm .............................   312
  FFT cache size ............................    16
 getmpw: optimal value of mpw= 1124
 getmpw: optimal value of mpw= 1124
 For input ecut=  4.500000E+01 best grid ngfft=      30      30      30
       max ecut=  4.883263E+01

 ==== FFT mesh ====
  FFT mesh divisions ........................    30   30   30
  Augmented FFT divisions ...................    31   31   30
  FFT algorithm .............................   312
  FFT cache size ............................    16
 getmpw: optimal value of mpw= 1124
 getmpw: optimal value of mpw= 1124
 For input ecut=  4.500000E+01 best grid ngfft=      30      30      30
       max ecut=  4.883263E+01

 ==== FFT mesh ====
  FFT mesh divisions ........................    30   30   30
  Augmented FFT divisions ...................    31   31   30
  FFT algorithm .............................   312
  FFT cache size ............................    16
 getmpw: optimal value of mpw= 1124
 getmpw: optimal value of mpw= 1124
 DATASET    1 : space group Fd -3 m (#227); Bravais cF (face-center cubic)

 getdim_nloc: deduce lmnmax  =   8, lnmax  =   4,
                      lmnmaxso=   8, lnmaxso=   4.
 memorf : analysis of memory needs
================================================================================
 Values of the parameters that define the memory need for DATASET  1 (RF).
     intxc =       0      iscf =       7    lmnmax =       4     lnmax =       4
     mgfft =      30  mpssoang =       2    mqgrid =    3001     natom =       2
  nloc_mem =       1    nspden =       1   nspinor =       1    nsppol =       1
      nsym =      48    n1xccc =    2501    ntypat =       1    occopt =       1
   xclevel =       2
-    mband =           8        mffmem =           1         mkmem =         128
-   mkqmem =         128        mk1mem =         128           mpw =        1124
      nfft =       27000          nkpt =         512
================================================================================
P This job should need less than                      63.324 Mbytes of memory.
  Rough estimation (10% accuracy) of disk space for files :
_ WF disk file :     70.252 Mbytes ; DEN or POT disk file :      0.208 Mbytes.
================================================================================

 Biggest array : cg(disk), with     17.5645 MBytes.
 memana : allocated an array of     17.565 Mbytes, for testing purposes.
 memana: allocated      63.324Mbytes, for testing purposes. 
 The job will continue.
 DATASET    2 : space group Fd -3 m (#227); Bravais cF (face-center cubic)

 getdim_nloc: deduce lmnmax  =   8, lnmax  =   4,
                      lmnmaxso=   8, lnmaxso=   4.
 memorf : analysis of memory needs
================================================================================
 Values of the parameters that define the memory need for DATASET  2 (RF).
     intxc =       0      iscf =       7    lmnmax =       4     lnmax =       4
     mgfft =      30  mpssoang =       2    mqgrid =    3001     natom =       2
  nloc_mem =       1    nspden =       1   nspinor =       1    nsppol =       1
      nsym =      48    n1xccc =    2501    ntypat =       1    occopt =       1
   xclevel =       2
-    mband =           8        mffmem =           1         mkmem =         128
-   mkqmem =         128        mk1mem =         128           mpw =        1124
      nfft =       27000          nkpt =         512
================================================================================
P This job should need less than                      64.794 Mbytes of memory.
  Rough estimation (10% accuracy) of disk space for files :
_ WF disk file :     70.252 Mbytes ; DEN or POT disk file :      0.208 Mbytes.
================================================================================

 Biggest array : cg(disk), with     17.5645 MBytes.
 memana : allocated an array of     17.565 Mbytes, for testing purposes.
 memana: allocated      64.794Mbytes, for testing purposes. 
 The job will continue.
 DATASET    3 : space group Fd -3 m (#227); Bravais cF (face-center cubic)

 getdim_nloc: deduce lmnmax  =   8, lnmax  =   4,
                      lmnmaxso=   8, lnmaxso=   4.
 memorf : analysis of memory needs
================================================================================
 Values of the parameters that define the memory need for DATASET  3 (RF).
     intxc =       0      iscf =       7    lmnmax =       4     lnmax =       4
     mgfft =      30  mpssoang =       2    mqgrid =    3001     natom =       2
  nloc_mem =       1    nspden =       1   nspinor =       1    nsppol =       1
      nsym =      48    n1xccc =    2501    ntypat =       1    occopt =       1
   xclevel =       2
-    mband =           8        mffmem =           1         mkmem =         128
-   mkqmem =         128        mk1mem =         128           mpw =        1124
      nfft =       27000          nkpt =         512
================================================================================
P This job should need less than                      64.794 Mbytes of memory.
  Rough estimation (10% accuracy) of disk space for files :
_ WF disk file :     70.252 Mbytes ; DEN or POT disk file :      0.208 Mbytes.
================================================================================

 Biggest array : cg(disk), with     17.5645 MBytes.
 memana : allocated an array of     17.565 Mbytes, for testing purposes.
 memana: allocated      64.794Mbytes, for testing purposes. 
 The job will continue.
--------------------------------------------------------------------------------
------------- Echo of variables that govern the present computation ------------
--------------------------------------------------------------------------------
-
- outvars: echo of selected default values
-   iomode0 =  0 , fftalg0 =312 , wfoptalg0 =  0
-
- outvars: echo of global parameters not present in the input file
-  max_nthreads =    0
-
 -outvars: echo values of preprocessed input variables --------
 
 These variables are accessible in NetCDF format (ddbo_OUT.nc)

-          iomode           3
            acell      6.7510000000E+00  6.7510000000E+00  6.7510000000E+00 Bohr
              amu      1.20110000E+01
           diemac      1.20000000E+01
             ecut      4.50000000E+01 Hartree
-          fftalg         312
           istwfk        1    0    0    0    1    0    0    0    0    0
                         0    0    0    0    0    0    0    0    0    0
                         0    0    0    0    0    0    0    0    0    0
                         0    0    1    0    0    0    1    0    0    0
                         0    0    0    0    0    0    0    0    0    0
                       outvar_i_n : Printing only first  50 k-points.
              ixc          11
           jdtset        1    2    3
              kpt      0.00000000E+00  0.00000000E+00  0.00000000E+00
                       1.25000000E-01  0.00000000E+00  0.00000000E+00
                       2.50000000E-01  0.00000000E+00  0.00000000E+00
                       3.75000000E-01  0.00000000E+00  0.00000000E+00
                       5.00000000E-01  0.00000000E+00  0.00000000E+00
                      -3.75000000E-01  0.00000000E+00  0.00000000E+00
                      -2.50000000E-01  0.00000000E+00  0.00000000E+00
                      -1.25000000E-01  0.00000000E+00  0.00000000E+00
                       0.00000000E+00  1.25000000E-01  0.00000000E+00
                       1.25000000E-01  1.25000000E-01  0.00000000E+00
                       2.50000000E-01  1.25000000E-01  0.00000000E+00
                       3.75000000E-01  1.25000000E-01  0.00000000E+00
                       5.00000000E-01  1.25000000E-01  0.00000000E+00
                      -3.75000000E-01  1.25000000E-01  0.00000000E+00
                      -2.50000000E-01  1.25000000E-01  0.00000000E+00
                      -1.25000000E-01  1.25000000E-01  0.00000000E+00
                       0.00000000E+00  2.50000000E-01  0.00000000E+00
                       1.25000000E-01  2.50000000E-01  0.00000000E+00
                       2.50000000E-01  2.50000000E-01  0.00000000E+00
                       3.75000000E-01  2.50000000E-01  0.00000000E+00
                       5.00000000E-01  2.50000000E-01  0.00000000E+00
                      -3.75000000E-01  2.50000000E-01  0.00000000E+00
                      -2.50000000E-01  2.50000000E-01  0.00000000E+00
                      -1.25000000E-01  2.50000000E-01  0.00000000E+00
                       0.00000000E+00  3.75000000E-01  0.00000000E+00
                       1.25000000E-01  3.75000000E-01  0.00000000E+00
                       2.50000000E-01  3.75000000E-01  0.00000000E+00
                       3.75000000E-01  3.75000000E-01  0.00000000E+00
                       5.00000000E-01  3.75000000E-01  0.00000000E+00
                      -3.75000000E-01  3.75000000E-01  0.00000000E+00
                      -2.50000000E-01  3.75000000E-01  0.00000000E+00
                      -1.25000000E-01  3.75000000E-01  0.00000000E+00
                       0.00000000E+00  5.00000000E-01  0.00000000E+00
                       1.25000000E-01  5.00000000E-01  0.00000000E+00
                       2.50000000E-01  5.00000000E-01  0.00000000E+00
                       3.75000000E-01  5.00000000E-01  0.00000000E+00
                       5.00000000E-01  5.00000000E-01  0.00000000E+00
                      -3.75000000E-01  5.00000000E-01  0.00000000E+00
                      -2.50000000E-01  5.00000000E-01  0.00000000E+00
                      -1.25000000E-01  5.00000000E-01  0.00000000E+00
                       0.00000000E+00 -3.75000000E-01  0.00000000E+00
                       1.25000000E-01 -3.75000000E-01  0.00000000E+00
                       2.50000000E-01 -3.75000000E-01  0.00000000E+00
                       3.75000000E-01 -3.75000000E-01  0.00000000E+00
                       5.00000000E-01 -3.75000000E-01  0.00000000E+00
                      -3.75000000E-01 -3.75000000E-01  0.00000000E+00
                      -2.50000000E-01 -3.75000000E-01  0.00000000E+00
                      -1.25000000E-01 -3.75000000E-01  0.00000000E+00
                       0.00000000E+00 -2.50000000E-01  0.00000000E+00
                       1.25000000E-01 -2.50000000E-01  0.00000000E+00
                       outvar_i_n : Printing only first  50 k-points.
           kptopt           3
         kptrlatt        8    0    0      0    8    0      0    0    8
          kptrlen      3.81894230E+01
P           mkmem         128
P          mkqmem         128
P          mk1mem         128
            natom           2
            nband           8
           ndtset           3
            ngfft          30      30      30
             nkpt         512
             nqpt           1
            nstep         100
             nsym          48
           ntypat           1
              occ      2.000000  2.000000  2.000000  2.000000  0.000000  0.000000
                       0.000000  0.000000
        optdriver           1
           prteig           0
           prtpot           1
            prtwf           0
              qpt1     0.00000000E+00  0.00000000E+00  0.00000000E+00
              qpt2     5.00000000E-01  0.00000000E+00  0.00000000E+00
              qpt3     5.00000000E-01  5.00000000E-01  0.00000000E+00
           rfphon           1
            rprim      0.0000000000E+00  5.0000000000E-01  5.0000000000E-01
                       5.0000000000E-01  0.0000000000E+00  5.0000000000E-01
                       5.0000000000E-01  5.0000000000E-01  0.0000000000E+00
          spgroup         227
           symrel      1  0  0   0  1  0   0  0  1      -1  0  0   0 -1  0   0  0 -1
                       0 -1  1   0 -1  0   1 -1  0       0  1 -1   0  1  0  -1  1  0
                      -1  0  0  -1  0  1  -1  1  0       1  0  0   1  0 -1   1 -1  0
                       0  1 -1   1  0 -1   0  0 -1       0 -1  1  -1  0  1   0  0  1
                      -1  0  0  -1  1  0  -1  0  1       1  0  0   1 -1  0   1  0 -1
                       0 -1  1   1 -1  0   0 -1  0       0  1 -1  -1  1  0   0  1  0
                       1  0  0   0  0  1   0  1  0      -1  0  0   0  0 -1   0 -1  0
                       0  1 -1   0  0 -1   1  0 -1       0 -1  1   0  0  1  -1  0  1
                      -1  0  1  -1  1  0  -1  0  0       1  0 -1   1 -1  0   1  0  0
                       0 -1  0   1 -1  0   0 -1  1       0  1  0  -1  1  0   0  1 -1
                       1  0 -1   0  0 -1   0  1 -1      -1  0  1   0  0  1   0 -1  1
                       0  1  0   0  0  1   1  0  0       0 -1  0   0  0 -1  -1  0  0
                       1  0 -1   0  1 -1   0  0 -1      -1  0  1   0 -1  1   0  0  1
                       0 -1  0   0 -1  1   1 -1  0       0  1  0   0  1 -1  -1  1  0
                      -1  0  1  -1  0  0  -1  1  0       1  0 -1   1  0  0   1 -1  0
                       0  1  0   1  0  0   0  0  1       0 -1  0  -1  0  0   0  0 -1
                       0  0 -1   0  1 -1   1  0 -1       0  0  1   0 -1  1  -1  0  1
                       1 -1  0   0 -1  1   0 -1  0      -1  1  0   0  1 -1   0  1  0
                       0  0  1   1  0  0   0  1  0       0  0 -1  -1  0  0   0 -1  0
                      -1  1  0  -1  0  0  -1  0  1       1 -1  0   1  0  0   1  0 -1
                       0  0  1   0  1  0   1  0  0       0  0 -1   0 -1  0  -1  0  0
                       1 -1  0   0 -1  0   0 -1  1      -1  1  0   0  1  0   0  1 -1
                       0  0 -1   1  0 -1   0  1 -1       0  0  1  -1  0  1   0 -1  1
                      -1  1  0  -1  0  1  -1  0  0       1 -1  0   1  0 -1   1  0  0
            tnons      0.0000000  0.0000000  0.0000000     0.2500000  0.2500000  0.2500000
                       0.0000000  0.0000000  0.0000000     0.2500000  0.2500000  0.2500000
                       0.0000000  0.0000000  0.0000000     0.2500000  0.2500000  0.2500000
                       0.0000000  0.0000000  0.0000000     0.2500000  0.2500000  0.2500000
                       0.0000000  0.0000000  0.0000000     0.2500000  0.2500000  0.2500000
                       0.0000000  0.0000000  0.0000000     0.2500000  0.2500000  0.2500000
                       0.0000000  0.0000000  0.0000000     0.2500000  0.2500000  0.2500000
                       0.0000000  0.0000000  0.0000000     0.2500000  0.2500000  0.2500000
                       0.0000000  0.0000000  0.0000000     0.2500000  0.2500000  0.2500000
                       0.0000000  0.0000000  0.0000000     0.2500000  0.2500000  0.2500000
                       0.0000000  0.0000000  0.0000000     0.2500000  0.2500000  0.2500000
                       0.0000000  0.0000000  0.0000000     0.2500000  0.2500000  0.2500000
                       0.0000000  0.0000000  0.0000000     0.2500000  0.2500000  0.2500000
                       0.0000000  0.0000000  0.0000000     0.2500000  0.2500000  0.2500000
                       0.0000000  0.0000000  0.0000000     0.2500000  0.2500000  0.2500000
                       0.0000000  0.0000000  0.0000000     0.2500000  0.2500000  0.2500000
                       0.0000000  0.0000000  0.0000000     0.2500000  0.2500000  0.2500000
                       0.0000000  0.0000000  0.0000000     0.2500000  0.2500000  0.2500000
                       0.0000000  0.0000000  0.0000000     0.2500000  0.2500000  0.2500000
                       0.0000000  0.0000000  0.0000000     0.2500000  0.2500000  0.2500000
                       0.0000000  0.0000000  0.0000000     0.2500000  0.2500000  0.2500000
                       0.0000000  0.0000000  0.0000000     0.2500000  0.2500000  0.2500000
                       0.0000000  0.0000000  0.0000000     0.2500000  0.2500000  0.2500000
                       0.0000000  0.0000000  0.0000000     0.2500000  0.2500000  0.2500000
           tolvrs      1.00000000E-18
            typat      1  1
              wtk        0.00195    0.00195    0.00195    0.00195    0.00195    0.00195
                         0.00195    0.00195    0.00195    0.00195    0.00195    0.00195
                         0.00195    0.00195    0.00195    0.00195    0.00195    0.00195
                         0.00195    0.00195    0.00195    0.00195    0.00195    0.00195
                         0.00195    0.00195    0.00195    0.00195    0.00195    0.00195
                         0.00195    0.00195    0.00195    0.00195    0.00195    0.00195
                         0.00195    0.00195    0.00195    0.00195    0.00195    0.00195
                         0.00195    0.00195    0.00195    0.00195    0.00195    0.00195
                         0.00195    0.00195
                       outvars : Printing only first  50 k-points.
           xangst      0.0000000000E+00  0.0000000000E+00  0.0000000000E+00
                       8.9311883380E-01  8.9311883380E-01  8.9311883380E-01
            xcart      0.0000000000E+00  0.0000000000E+00  0.0000000000E+00
                       1.6877500000E+00  1.6877500000E+00  1.6877500000E+00
             xred      0.0000000000E+00  0.0000000000E+00  0.0000000000E+00
                       2.5000000000E-01  2.5000000000E-01  2.5000000000E-01
            znucl        6.00000

================================================================================

 chkinp: Checking input parameters for consistency, jdtset=   1.

 chkinp: Checking input parameters for consistency, jdtset=   2.

 chkinp: Checking input parameters for consistency, jdtset=   3.
 DATA TYPE INFORMATION: 
 REAL:      Data type name: REAL(DP) 
            Kind value:      8
            Precision:      15
            Smallest nonnegligible quantity relative to 1:  0.22204460E-015
            Smallest positive number:                       0.22250739E-307
            Largest representable number:                   0.17976931E+309
 INTEGER:   Data type name: INTEGER(default) 
            Kind value: 4
            Bit size:   32
            Largest representable number: 2147483647
 LOGICAL:   Data type name: LOGICAL 
            Kind value: 4
 CHARACTER: Data type name: CHARACTER             Kind value: 1

  ==== OpenMP parallelism is OFF ====
 
  ==== Using MPI-2 specifications ==== 
  MPI-IO support is ON
  xmpi_tag_ub ................    268435455
  xmpi_bsize_ch ..............            1
  xmpi_bsize_int .............            4
  xmpi_bsize_sp ..............            4
  xmpi_bsize_dp ..............            8
  xmpi_bsize_spc .............            8
  xmpi_bsize_dpc .............           16
  xmpio_bsize_frm ............            4
  xmpi_address_kind ..........            8
  xmpi_offset_kind ...........            8
  MPI_WTICK ..................    1.0000000000000002E-006

================================================================================
== DATASET  1 ==================================================================
-   mpi_nproc: 4, omp_nthreads: -1 (-1 if OMP is not activated)


--- !COMMENT
src_file: m_xgScalapack.F90
src_line: 241
message: |
    xgScalapack in auto mode
...

 mkfilename: getwfk from: groundstateo_WFK.nc


 getdim_nloc: deduce lmnmax  =   8, lnmax  =   4,
                      lmnmaxso=   8, lnmaxso=   4.
 Exchange-correlation functional for the present dataset will be:
  GGA: Perdew-Burke-Ernzerhof functional - ixc=11
 Citation for XC functional:
  J.P.Perdew, K.Burke, M.Ernzerhof, PRL 77, 3865 (1996)

 Unit cell volume ucvol=  7.6920896E+01 bohr^3
 Angles (23,13,12)=  6.00000000E+01  6.00000000E+01  6.00000000E+01 degrees
 setup1 : take into account q-point for computing boxcut.

 getcut: wavevector=  0.0000  0.0000  0.0000  ngfft=  30  30  30
         ecut(hartree)=     45.000   => boxcut(ratio)=   2.08343
- pspini: atom type   1  psp file is C.psp8
- pspatm: opening atomic psp file    C.psp8
- C     ONCVPSP-3.2.3.1  r_core=   1.20440   1.26326
-  6.00000   4.00000    170503                znucl, zion, pspdat
    8   11    1    4       600   0.00000      pspcod,pspxc,lmax,lloc,mmax,r2well
    5.99000000000000    4.00000000000000    0.00000000000000   rchrg,fchrg,qchrg
     nproj     2     2
     extension_switch     1
  valence charge (before rescaling) integrates to:    3.9929454843644803     
  pspatm : epsatm=    4.31347020
         --- l  ekb(1:nproj) -->
             0    6.481548    0.385504
             1   -4.199961   -0.877517
 pspatm: atomic psp has been read  and splines computed

   6.90155232E+01                                ecore*ucvol(ha*bohr**3)
 ==== Info on pseudopotentials ====
  Norm-conserving pseudopotentials
  Number of pseudopotentials ..    1
  Number of types of atoms   ..    1
  Scalar calculation (no spin-orbit term)
  Nonlocal part applied using Legendre polynomials
  Max number of non-local projectors over l and type   2
  Highest angular momentum +1 .......   2
  Max number of (l,n)   components ..   4
  Max number of (l,m,n) components ..   4

 Pseudo-Core Charge Info: 
   Number of radial points for pseudo-core charge .. 2501
   XC core-correction treatment (optnlxccc) ........    1
   Radius for pseudo-core charge for each type ..... 

  - Atom type    1 has pseudo-core radius ..  5.9900

 Info on the Q-grid used for form factors in spline form: 
   Number of q-points for radial functions ffspl ..   3001
   Number of q-points for vlspl ...................   3001
   vloc is computed in Reciprocal Space
   model core charge treated in real-space

  XC functional for type 1 is 11
  Pseudo valence available: yes

 About to read wavefunctions from: groundstateo_WFK.nc
 wfk_read_my_kptbands: , wall:  0.02 [s] , cpu:  0.02 [s] <<< TIME
 symatm: atom number 1 is reached starting at atom
   1  2  1  2  1  2  1  2  1  2  1  2  1  2  1  2  1  2  1  2  1  2  1  2
   1  2  1  2  1  2  1  2  1  2  1  2  1  2  1  2  1  2  1  2  1  2  1  2
 symatm: atom number 2 is reached starting at atom
   2  1  2  1  2  1  2  1  2  1  2  1  2  1  2  1  2  1  2  1  2  1  2  1
   2  1  2  1  2  1  2  1  2  1  2  1  2  1  2  1  2  1  2  1  2  1  2  1

 getcut: wavevector=  0.0000  0.0000  0.0000  ngfft=  30  30  30
         ecut(hartree)=     45.000   => boxcut(ratio)=   2.08343
 mkrho: echo density (plane-wave part only)
 Total charge density [el/Bohr^3]
)     Maximum=    2.9519E-01  at reduced coord.    0.2000    0.2000    0.4333
)     Minimum=    1.3092E-02  at reduced coord.    0.5000    0.5000    0.5000
   Integrated=    8.0000E+00

 1/G**2 cut-off applied in the following step : cutoff-mode = CRYSTAL

 1/G**2 cut-off applied in the following step : cutoff-mode = CRYSTAL

 ==> Calculation of the frozen part of the second order derivatives, this can take some time...


 ==> Calculation of the frozen part of the second order derivative done


 1/G**2 cut-off applied in the following step : cutoff-mode = CRYSTAL

 ==>  initialize data related to q vector <== 

 respfn : the norm of the phonon wavelength (as input) was small (<1.d-7).
  q has been set exactly to (0 0 0)
 The list of irreducible perturbations for this q vector is:
    1)    idir= 1    ipert=   1

================================================================================
 Real(R)+Recip(G) space primitive vectors, cartesian coordinates (Bohr,Bohr^-1):
 R(1)=  0.0000000  3.3755000  3.3755000  G(1)= -0.1481262  0.1481262  0.1481262
 R(2)=  3.3755000  0.0000000  3.3755000  G(2)=  0.1481262 -0.1481262  0.1481262
 R(3)=  3.3755000  3.3755000  0.0000000  G(3)=  0.1481262  0.1481262 -0.1481262
 Unit cell volume ucvol=  7.6920896E+01 bohr^3
 Unit cell volume ucvol=  7.6920896E+01 bohr^3
 Angles (23,13,12)=  6.00000000E+01  6.00000000E+01  6.00000000E+01 degrees
 Angles (23,13,12)=  6.00000000E+01  6.00000000E+01  6.00000000E+01 degrees

 getcut: wavevector=  0.0000  0.0000  0.0000  ngfft=  30  30  30
         ecut(hartree)=     45.000   => boxcut(ratio)=   2.08343

 The perturbation idir=   2  ipert=   1 is
 symmetric of a previously calculated perturbation.
 So, its SCF calculation is not needed.


 The perturbation idir=   3  ipert=   1 is
 symmetric of a previously calculated perturbation.
 So, its SCF calculation is not needed.


 The perturbation idir=   1  ipert=   2 is
 symmetric of a previously calculated perturbation.
 So, its SCF calculation is not needed.


 The perturbation idir=   2  ipert=   2 is
 symmetric of a previously calculated perturbation.
 So, its SCF calculation is not needed.


 The perturbation idir=   3  ipert=   2 is
 symmetric of a previously calculated perturbation.
 So, its SCF calculation is not needed.


--------------------------------------------------------------------------------
 Perturbation wavevector (in red.coord.)   0.000000  0.000000  0.000000
 Perturbation : displacement of atom   1   along direction   1
 littlegroup_pert: found     2 symmetries that leave the perturbation invariant:
   1   0   0   0   1   0   0   0   1
   1   0   0   0   0   1   0   1   0
 symatm: atom number 1 is reached starting at atom
   1  1
 symatm: atom number 2 is reached starting at atom
   2  2
 symkpt : the number of k-points, thanks to the symmetries,
 is reduced to   288 .
 getmpw: optimal value of mpw= 1124
 Memory required for psi0_k, psi0_kq, psi1_kq: 29.6 [Mb] <<< MEM
 About to read wavefunctions from: groundstateo_WFK.nc
 wfk_read_my_kptbands: , wall:  0.01 [s] , cpu:  0.01 [s] <<< TIME
 getmpw: optimal value of mpw= 1124
 qpt is Gamma, psi_k+q initialized from psi_k in memory
 Initialisation of the first-order wave-functions :
  ireadwf=   0
 Initializing rhor1 from valence densities taken from pseudopotential files

 getcut: wavevector=  0.0000  0.0000  0.0000  ngfft=  30  30  30
         ecut(hartree)=     45.000   => boxcut(ratio)=   2.08343

 1/G**2 cut-off applied in the following step : cutoff-mode = CRYSTAL

 ITER STEP NUMBER     1
-ETOT  1   8.9980761518122     -3.618E+02 5.365E+00 1.124E+03

 Simple mixing update:
  residual square of the potential:    710.35034393229932
 dfpt_scfcv: previous iteration took  1.10 [s]

 ITER STEP NUMBER     2
 ETOT  2   8.6235502215949     -3.745E-01 3.245E-01 6.340E+00

 Pulay update with  1 previous iterations:
 mixing of old trial potential: alpha(m:m-4)=  0.951      0.495E-01
 dfpt_scfcv: previous iteration took  1.23 [s]

 ITER STEP NUMBER     3
 ETOT  3   8.6213594420194     -2.191E-03 7.717E-03 1.534E-01

 Pulay update with  2 previous iterations:
 mixing of old trial potential: alpha(m:m-4)=   1.07     -0.607E-01 -0.133E-01
 dfpt_scfcv: previous iteration took  1.15 [s]

 ITER STEP NUMBER     4
 ETOT  4   8.6213348034131     -2.464E-05 1.257E-03 1.260E-03

 Pulay update with  3 previous iterations:
 mixing of old trial potential: alpha(m:m-4)=  0.995      0.119E-01 -0.658E-02 -0.449E-03
 dfpt_scfcv: previous iteration took  1.10 [s]

 ITER STEP NUMBER     5
 ETOT  5   8.6213346225806     -1.808E-07 5.468E-05 3.643E-04

 Pulay update with  4 previous iterations:
 mixing of old trial potential: alpha(m:m-4)=  0.713      0.312     -0.241E-01 -0.664E-03  0.178E-03
 dfpt_scfcv: previous iteration took  1.19 [s]

 ITER STEP NUMBER     6
 ETOT  6   8.6213344718303     -1.508E-07 9.040E-06 5.510E-05

 Pulay update with  5 previous iterations:
 mixing of old trial potential: alpha(m:m-4)=  0.734      0.284     -0.813E-02 -0.102E-01  0.475E-03
 dfpt_scfcv: previous iteration took  1.18 [s]

 ITER STEP NUMBER     7
 ETOT  7   8.6213344445988     -2.723E-08 5.800E-07 4.017E-08

 Pulay update with  6 previous iterations:
 mixing of old trial potential: alpha(m:m-4)=   1.12     -0.824E-01 -0.387E-01 -0.967E-03  0.116E-02
 dfpt_scfcv: previous iteration took  1.19 [s]

 ITER STEP NUMBER     8
 ETOT  8   8.6213344445920     -6.764E-12 1.019E-07 1.593E-10

 Pulay update with  7 previous iterations:
 mixing of old trial potential: alpha(m:m-4)=   1.07     -0.708E-01  0.333E-02  0.148E-02 -0.847E-04
 dfpt_scfcv: previous iteration took  1.20 [s]

 ITER STEP NUMBER     9
 ETOT  9   8.6213344445916     -3.979E-13 6.228E-09 1.310E-12

 Pulay update with  7 previous iterations:
 mixing of old trial potential: alpha(m:m-4)=   1.09     -0.853E-01 -0.636E-03  0.137E-03  0.724E-04
 dfpt_scfcv: previous iteration took  1.21 [s]

 ITER STEP NUMBER    10
 ETOT 10   8.6213344445922      5.684E-13 1.916E-09 8.634E-15

 Pulay update with  7 previous iterations:
 mixing of old trial potential: alpha(m:m-4)=   1.10     -0.108      0.467E-02  0.106E-03  0.897E-06
 dfpt_scfcv: previous iteration took  1.14 [s]

 ITER STEP NUMBER    11
 ETOT 11   8.6213344445913     -9.095E-13 1.189E-10 2.774E-17

 Pulay update with  7 previous iterations:
 mixing of old trial potential: alpha(m:m-4)=   1.08     -0.879E-01  0.491E-02 -0.117E-03 -0.708E-05
 dfpt_scfcv: previous iteration took  1.15 [s]

 ITER STEP NUMBER    12
 ETOT 12   8.6213344445922      9.095E-13 3.713E-11 1.644E-19

 At SCF step   12       vres2   =  1.64E-19 < tolvrs=  1.00E-18 =>converged.

 fftdatar_write: About to write data to: ddbo_DS1_DEN1 with iomode: IO_MODE_ETSF
- Creating HDf5 file with MPI-IO support: ddbo_DS1_DEN1.nc
 input_len, strlen:        2845     2000000
- Opening HDf5 file with MPI-IO support: ddbo_DS1_DEN1.nc
 IO operation , wall:  0.01 [s] , cpu:  0.01 [s] <<< TIME

 fftdatar_write: About to write data to: ddbo_DS1_POT1 with iomode: IO_MODE_ETSF
- Creating HDf5 file with MPI-IO support: ddbo_DS1_POT1.nc
 input_len, strlen:        2845     2000000
- Opening HDf5 file with MPI-IO support: ddbo_DS1_POT1.nc
 IO operation , wall:  0.02 [s] , cpu:  0.01 [s] <<< TIME
- Opening HDf5 file with MPI-IO support: ddbo_DS1_POT1.nc
================================================================================

 ----iterations are completed or convergence reached----

 Mean square residual over all n,k,spin=   91.547E-15; max=  37.130E-12
   0.0000  0.0000  0.0000    1  2.48963E-23 kpt; spin; max resid(k); each band:
  3.60E-24 3.21E-25 4.58E-25 7.47E-25 1.99E-24 2.77E-24 9.66E-25 2.49E-23
   0.1250  0.0000  0.0000    1  5.85042E-23 kpt; spin; max resid(k); each band:
  2.66E-24 1.65E-24 1.07E-24 8.92E-25 3.69E-24 4.79E-24 2.47E-24 5.85E-23
   0.2500  0.0000  0.0000    1  9.29763E-21 kpt; spin; max resid(k); each band:
  6.98E-24 1.65E-24 2.10E-24 8.47E-25 7.35E-24 8.61E-24 1.63E-24 9.30E-21
   0.3750  0.0000  0.0000    1  6.43148E-18 kpt; spin; max resid(k); each band:
  2.42E-24 1.45E-24 1.27E-24 1.83E-24 1.20E-23 1.13E-23 2.92E-24 6.43E-18
   0.5000  0.0000  0.0000    1  2.38922E-18 kpt; spin; max resid(k); each band:
  1.78E-24 5.30E-24 1.30E-24 1.31E-24 1.03E-23 8.01E-24 2.44E-24 2.39E-18
  -0.3750  0.0000  0.0000    1  6.43148E-18 kpt; spin; max resid(k); each band:
  2.42E-24 1.45E-24 1.27E-24 1.83E-24 1.20E-23 1.13E-23 2.92E-24 6.43E-18
  -0.2500  0.0000  0.0000    1  9.29753E-21 kpt; spin; max resid(k); each band:
  6.98E-24 1.65E-24 2.10E-24 8.47E-25 7.35E-24 8.61E-24 1.63E-24 9.30E-21
  -0.1250  0.0000  0.0000    1  5.84981E-23 kpt; spin; max resid(k); each band:
  2.66E-24 1.65E-24 1.07E-24 8.91E-25 3.69E-24 4.79E-24 2.47E-24 5.85E-23
   0.0000  0.1250  0.0000    1  7.56304E-23 kpt; spin; max resid(k); each band:
  2.40E-24 1.04E-24 1.23E-24 9.88E-25 6.59E-24 3.00E-24 2.84E-24 7.56E-23
   0.1250  0.1250  0.0000    1  3.66525E-23 kpt; spin; max resid(k); each band:
  4.34E-24 4.56E-24 9.49E-24 5.48E-25 3.31E-24 8.31E-24 4.49E-24 3.67E-23
   0.2500  0.1250  0.0000    1  1.31535E-22 kpt; spin; max resid(k); each band:
  8.36E-24 1.89E-24 1.09E-24 2.83E-24 2.84E-24 1.70E-23 2.94E-23 1.32E-22
   0.3750  0.1250  0.0000    1  2.38227E-21 kpt; spin; max resid(k); each band:
  3.03E-24 1.89E-24 1.24E-24 2.93E-24 4.97E-24 8.18E-23 1.32E-22 2.38E-21
   0.5000  0.1250  0.0000    1  1.38092E-15 kpt; spin; max resid(k); each band:
  3.76E-24 1.18E-24 4.21E-24 1.21E-24 1.22E-23 1.75E-22 6.09E-23 1.38E-15
  -0.3750  0.1250  0.0000    1  3.42018E-15 kpt; spin; max resid(k); each band:
  3.54E-24 1.32E-24 5.29E-24 1.10E-24 1.32E-23 6.04E-23 4.43E-23 3.42E-15
  -0.2500  0.1250  0.0000    1  5.31419E-20 kpt; spin; max resid(k); each band:
  4.35E-24 2.01E-24 4.84E-24 1.78E-24 1.42E-23 8.70E-24 3.27E-23 5.31E-20
  -0.1250  0.1250  0.0000    1  4.16532E-22 kpt; spin; max resid(k); each band:
  1.18E-24 2.30E-24 1.39E-24 9.56E-25 7.35E-24 3.49E-24 7.16E-24 4.17E-22
   0.0000  0.2500  0.0000    1  3.90758E-21 kpt; spin; max resid(k); each band:
  6.82E-25 1.40E-24 1.01E-24 1.65E-24 9.79E-24 8.53E-24 3.12E-24 3.91E-21
   0.1250  0.2500  0.0000    1  3.27031E-22 kpt; spin; max resid(k); each band:
  7.44E-25 4.24E-24 1.03E-24 7.42E-24 5.81E-24 1.05E-23 2.22E-23 3.27E-22
   0.2500  0.2500  0.0000    1  2.98966E-21 kpt; spin; max resid(k); each band:
  4.10E-24 5.53E-25 5.78E-24 2.16E-24 9.81E-24 5.74E-24 7.06E-22 2.99E-21
   0.3750  0.2500  0.0000    1  5.87835E-20 kpt; spin; max resid(k); each band:
  2.86E-24 2.06E-24 8.88E-25 5.45E-24 4.72E-24 1.23E-23 5.88E-20 5.10E-20
   0.5000  0.2500  0.0000    1  7.27061E-18 kpt; spin; max resid(k); each band:
  4.74E-24 1.90E-24 3.62E-24 5.62E-24 1.22E-23 1.63E-21 9.10E-19 7.27E-18
  -0.3750  0.2500  0.0000    1  3.51194E-12 kpt; spin; max resid(k); each band:
  4.45E-24 1.18E-24 1.39E-24 5.50E-24 1.74E-23 4.33E-18 7.74E-16 3.51E-12
  -0.2500  0.2500  0.0000    1  1.12110E-19 kpt; spin; max resid(k); each band:
  4.08E-24 2.34E-24 1.67E-24 1.91E-24 1.09E-23 2.11E-22 1.93E-20 1.12E-19
  -0.1250  0.2500  0.0000    1  1.95406E-20 kpt; spin; max resid(k); each band:
  5.87E-24 2.11E-24 1.79E-24 6.79E-25 1.25E-23 1.41E-23 1.44E-23 1.95E-20
   0.0000  0.3750  0.0000    1  1.50666E-19 kpt; spin; max resid(k); each band:
  4.14E-24 8.82E-24 1.15E-24 2.53E-24 1.88E-23 1.23E-23 3.80E-24 1.51E-19
   0.1250  0.3750  0.0000    1  6.93551E-21 kpt; spin; max resid(k); each band:
  5.10E-24 7.81E-24 1.10E-24 1.25E-24 1.09E-23 4.62E-23 1.20E-22 6.94E-21
   0.2500  0.3750  0.0000    1  6.24932E-20 kpt; spin; max resid(k); each band:
  3.42E-24 2.08E-24 2.01E-24 5.32E-24 4.76E-24 2.35E-23 2.16E-20 6.25E-20
   0.3750  0.3750  0.0000    1  1.38934E-17 kpt; spin; max resid(k); each band:
  2.77E-24 6.94E-25 5.01E-24 3.13E-24 8.98E-24 1.22E-23 6.55E-18 1.39E-17
   0.5000  0.3750  0.0000    1  2.78076E-16 kpt; spin; max resid(k); each band:
  4.36E-24 7.97E-25 1.77E-24 4.74E-24 4.36E-24 7.34E-24 2.78E-16 1.22E-16
  -0.3750  0.3750  0.0000    1  1.40207E-12 kpt; spin; max resid(k); each band:
  3.00E-24 4.67E-24 1.68E-24 4.86E-24 1.66E-23 6.25E-22 1.22E-13 1.40E-12
  -0.2500  0.3750  0.0000    1  4.20989E-12 kpt; spin; max resid(k); each band:
  5.07E-24 1.16E-23 1.51E-24 9.01E-25 2.37E-24 4.46E-19 1.04E-16 4.21E-12
  -0.1250  0.3750  0.0000    1  1.70276E-15 kpt; spin; max resid(k); each band:
  3.89E-24 9.40E-24 2.12E-24 9.17E-25 8.92E-24 6.29E-23 1.97E-23 1.70E-15
   0.0000  0.5000  0.0000    1  2.40534E-20 kpt; spin; max resid(k); each band:
  6.86E-24 2.59E-24 1.21E-24 2.80E-24 2.05E-23 1.30E-23 2.95E-24 2.41E-20
   0.1250  0.5000  0.0000    1  2.36556E-16 kpt; spin; max resid(k); each band:
  2.88E-24 6.87E-24 2.08E-24 9.96E-25 8.50E-24 1.75E-22 4.32E-23 2.37E-16
   0.2500  0.5000  0.0000    1  2.63617E-18 kpt; spin; max resid(k); each band:
  3.54E-24 9.90E-25 4.66E-24 5.05E-24 5.47E-24 4.47E-21 9.52E-19 2.64E-18
   0.3750  0.5000  0.0000    1  2.08577E-16 kpt; spin; max resid(k); each band:
  3.54E-24 4.67E-24 6.24E-24 4.68E-24 9.47E-24 1.51E-23 3.54E-17 2.09E-16
   0.5000  0.5000  0.0000    1  1.79812E-16 kpt; spin; max resid(k); each band:
  2.29E-24 5.21E-24 4.66E-24 3.44E-24 9.30E-24 1.07E-23 4.90E-18 1.80E-16
  -0.3750  0.5000  0.0000    1  2.08577E-16 kpt; spin; max resid(k); each band:
  3.54E-24 4.67E-24 6.24E-24 4.67E-24 9.47E-24 1.51E-23 3.54E-17 2.09E-16
  -0.2500  0.5000  0.0000    1  2.63617E-18 kpt; spin; max resid(k); each band:
  3.54E-24 9.90E-25 4.66E-24 5.05E-24 5.47E-24 4.47E-21 9.52E-19 2.64E-18
  -0.1250  0.5000  0.0000    1  2.36556E-16 kpt; spin; max resid(k); each band:
  2.88E-24 6.87E-24 2.08E-24 9.96E-25 8.50E-24 1.75E-22 4.32E-23 2.37E-16
   0.0000 -0.3750  0.0000    1  1.50637E-19 kpt; spin; max resid(k); each band:
  4.14E-24 8.82E-24 1.15E-24 2.53E-24 1.88E-23 1.23E-23 3.80E-24 1.51E-19
   0.1250 -0.3750  0.0000    1  1.70276E-15 kpt; spin; max resid(k); each band:
  3.89E-24 9.40E-24 2.12E-24 9.17E-25 8.92E-24 6.29E-23 1.97E-23 1.70E-15
   0.2500 -0.3750  0.0000    1  4.20988E-12 kpt; spin; max resid(k); each band:
  5.07E-24 1.16E-23 1.51E-24 9.02E-25 2.37E-24 4.46E-19 1.04E-16 4.21E-12
   0.3750 -0.3750  0.0000    1  1.40200E-12 kpt; spin; max resid(k); each band:
  3.00E-24 4.67E-24 1.68E-24 4.86E-24 1.66E-23 6.25E-22 1.22E-13 1.40E-12
   0.5000 -0.3750  0.0000    1  2.78078E-16 kpt; spin; max resid(k); each band:
  4.36E-24 7.97E-25 1.77E-24 4.74E-24 4.36E-24 7.34E-24 2.78E-16 1.22E-16
  -0.3750 -0.3750  0.0000    1  1.38938E-17 kpt; spin; max resid(k); each band:
  2.77E-24 6.94E-25 5.01E-24 3.13E-24 8.98E-24 1.22E-23 6.55E-18 1.39E-17
  -0.2500 -0.3750  0.0000    1  6.24929E-20 kpt; spin; max resid(k); each band:
  3.42E-24 2.08E-24 2.01E-24 5.31E-24 4.76E-24 2.35E-23 2.16E-20 6.25E-20
  -0.1250 -0.3750  0.0000    1  6.93549E-21 kpt; spin; max resid(k); each band:
  5.10E-24 7.81E-24 1.10E-24 1.25E-24 1.09E-23 4.62E-23 1.20E-22 6.94E-21
   0.0000 -0.2500  0.0000    1  3.90755E-21 kpt; spin; max resid(k); each band:
  6.82E-25 1.40E-24 1.01E-24 1.65E-24 9.78E-24 8.53E-24 3.12E-24 3.91E-21
   0.1250 -0.2500  0.0000    1  1.95406E-20 kpt; spin; max resid(k); each band:
  5.87E-24 2.11E-24 1.79E-24 6.79E-25 1.25E-23 1.41E-23 1.44E-23 1.95E-20
 outresid : prtvol=0 or 1, do not print more k-points.


 Thirteen components of 2nd-order total energy (hartree) are
 1,2,3: 0th-order hamiltonian combined with 1st-order wavefunctions
     kin0=   3.69455383E+02 eigvalue=  -9.13352699E+00  local=  -1.33204480E+02
 4,5,6: 1st-order hamiltonian combined with 1st and 0th-order wfs
 loc psp =  -1.30760729E+02  Hartree=   2.56086666E+01     xc=  -1.01662184E+01
 note that "loc psp" includes a xc core correction that could be resolved
 7,8,9: eventually, occupation + non-local contributions
    edocc=   1.37550019E+01     enl0=   1.05841878E+02   enl1=  -5.93552678E+02
 1-9 gives the relaxation energy (to be shifted if some occ is /=2.0)
   erelax=  -3.62156703E+02
 10,11,12 Non-relaxation  contributions : frozen-wavefunctions and Ewald
 fr.local=   5.03481202E+01 fr.nonlo=   3.02374634E+02  Ewald=   1.98550269E+01
 dfpt_prtene : non-relax=    3.725778E+02
 13,14 Frozen wf xc core corrections (1) and (2)
 frxc 1  =  -1.12048086E+01  frxc 2 =   9.40506583E+00
 Resulting in :
 2DEtotal=    0.8621334445E+01 Ha. Also 2DEtotal=    0.234598440957E+03 eV
    (2DErelax=   -3.6215670348E+02 Ha. 2DEnonrelax=    3.7077803793E+02 Ha)
    (  non-var. 2DEtotal :    8.6213344446E+00 Ha)

================================================================================

 ---- first-order wavefunction calculations are completed ----


 ==> Compute Derivative Database <==
- Creating HDf5 file with MPI-IO support: ddbo_DS1_DDB.nc
 input_len, strlen:        2845     2000000
 
 phonon wavelength (reduced coordinates) , norm, and energies in hartree
  0.00 0.00 0.00 1.00
  0.000000000E+00  0.000000000E+00  0.000000000E+00  5.878675647E-03  5.878675647E-03
  5.878675647E-03

 Zero Point Motion energy (sum of freqs/2)=  8.818013471E-03
 dataset: 1 , wall: 14.73 [s] , cpu: 14.69 [s] <<< TIME

================================================================================
== DATASET  2 ==================================================================
-   mpi_nproc: 4, omp_nthreads: -1 (-1 if OMP is not activated)


--- !COMMENT
src_file: m_xgScalapack.F90
src_line: 241
message: |
    xgScalapack in auto mode
...

 mkfilename: getwfk from: groundstateo_WFK.nc


 getdim_nloc: deduce lmnmax  =   8, lnmax  =   4,
                      lmnmaxso=   8, lnmaxso=   4.
 Exchange-correlation functional for the present dataset will be:
  GGA: Perdew-Burke-Ernzerhof functional - ixc=11
 Citation for XC functional:
  J.P.Perdew, K.Burke, M.Ernzerhof, PRL 77, 3865 (1996)

 Unit cell volume ucvol=  7.6920896E+01 bohr^3
 Angles (23,13,12)=  6.00000000E+01  6.00000000E+01  6.00000000E+01 degrees
 setup1 : take into account q-point for computing boxcut.

 getcut: wavevector=  0.5000  0.0000  0.0000  ngfft=  30  30  30
         ecut(hartree)=     45.000   => boxcut(ratio)=   2.01235
 About to read wavefunctions from: groundstateo_WFK.nc
 wfk_read_my_kptbands: , wall:  0.02 [s] , cpu:  0.02 [s] <<< TIME
 symatm: atom number 1 is reached starting at atom
   1  2  1  2  1  2  1  2  1  2  1  2  1  2  1  2  1  2  1  2  1  2  1  2
   1  2  1  2  1  2  1  2  1  2  1  2  1  2  1  2  1  2  1  2  1  2  1  2
 symatm: atom number 2 is reached starting at atom
   2  1  2  1  2  1  2  1  2  1  2  1  2  1  2  1  2  1  2  1  2  1  2  1
   2  1  2  1  2  1  2  1  2  1  2  1  2  1  2  1  2  1  2  1  2  1  2  1

 getcut: wavevector=  0.0000  0.0000  0.0000  ngfft=  30  30  30
         ecut(hartree)=     45.000   => boxcut(ratio)=   2.08343
 mkrho: echo density (plane-wave part only)
 Total charge density [el/Bohr^3]
)     Maximum=    2.9519E-01  at reduced coord.    0.2000    0.2000    0.4333
)     Minimum=    1.3092E-02  at reduced coord.    0.5000    0.5000    0.5000
   Integrated=    8.0000E+00

 ==> Calculation of the frozen part of the second order derivatives, this can take some time...


 ==> Calculation of the frozen part of the second order derivative done


 ==>  initialize data related to q vector <== 


--- !WARNING
src_file: m_respfn_driver.F90
src_line: 1214
message: |
    
     chneut/=0 not allowed with q/=0 => chneut reset to 0 locally.
...


--- !WARNING
src_file: m_respfn_driver.F90
src_line: 1219
message: |
    
     asr/=0 not allowed with q/=0 => asr reset to 0 locally.
...

 The list of irreducible perturbations for this q vector is:
    1)    idir= 1    ipert=   1
    2)    idir= 2    ipert=   1

================================================================================
 Real(R)+Recip(G) space primitive vectors, cartesian coordinates (Bohr,Bohr^-1):
 R(1)=  0.0000000  3.3755000  3.3755000  G(1)= -0.1481262  0.1481262  0.1481262
 R(2)=  3.3755000  0.0000000  3.3755000  G(2)=  0.1481262 -0.1481262  0.1481262
 R(3)=  3.3755000  3.3755000  0.0000000  G(3)=  0.1481262  0.1481262 -0.1481262
 Unit cell volume ucvol=  7.6920896E+01 bohr^3
 Unit cell volume ucvol=  7.6920896E+01 bohr^3
 Angles (23,13,12)=  6.00000000E+01  6.00000000E+01  6.00000000E+01 degrees
 Angles (23,13,12)=  6.00000000E+01  6.00000000E+01  6.00000000E+01 degrees

 getcut: wavevector=  0.5000  0.0000  0.0000  ngfft=  30  30  30
         ecut(hartree)=     45.000   => boxcut(ratio)=   2.01235

 The perturbation idir=   3  ipert=   1 is
 symmetric of a previously calculated perturbation.
 So, its SCF calculation is not needed.


 The perturbation idir=   1  ipert=   2 is
 symmetric of a previously calculated perturbation.
 So, its SCF calculation is not needed.


 The perturbation idir=   2  ipert=   2 is
 symmetric of a previously calculated perturbation.
 So, its SCF calculation is not needed.


 The perturbation idir=   3  ipert=   2 is
 symmetric of a previously calculated perturbation.
 So, its SCF calculation is not needed.


--------------------------------------------------------------------------------
 Perturbation wavevector (in red.coord.)   0.500000  0.000000  0.000000
 Perturbation : displacement of atom   1   along direction   1
 littlegroup_pert: found     2 symmetries that leave the perturbation invariant:
   1   0   0   0   1   0   0   0   1
   1   0   0   0   0   1   0   1   0
 symatm: atom number 1 is reached starting at atom
   1  1
 symatm: atom number 2 is reached starting at atom
   2  2
 symkpt : the number of k-points, thanks to the symmetries,
 is reduced to   288 .
 getmpw: optimal value of mpw= 1124
 Memory required for psi0_k, psi0_kq, psi1_kq: 29.6 [Mb] <<< MEM
 About to read wavefunctions from: groundstateo_WFK.nc
 wfk_read_my_kptbands: , wall:  0.01 [s] , cpu:  0.01 [s] <<< TIME
 getmpw: optimal value of mpw= 1124
 About to read wavefunctions from: groundstateo_WFK.nc
 wfk_read_my_kptbands: , wall:  0.01 [s] , cpu:  0.01 [s] <<< TIME
 Initialisation of the first-order wave-functions :
  ireadwf=   0
 Initializing rhor1 from valence densities taken from pseudopotential files

 getcut: wavevector=  0.0000  0.0000  0.0000  ngfft=  30  30  30
         ecut(hartree)=     45.000   => boxcut(ratio)=   2.08343

 ITER STEP NUMBER     1
-ETOT  1   13.547338341066     -3.942E+02 5.884E+00 1.044E+04

 Simple mixing update:
  residual square of the potential:    2904.1903376326650
 dfpt_scfcv: previous iteration took  1.15 [s]

 ITER STEP NUMBER     2
 ETOT  2   12.606675149245     -9.407E-01 4.927E-01 2.657E+03

 Pulay update with  1 previous iterations:
 mixing of old trial potential: alpha(m:m-4)=  0.658      0.342
 dfpt_scfcv: previous iteration took  1.22 [s]

 ITER STEP NUMBER     3
 ETOT  3   12.114487783130     -4.922E-01 2.160E-02 1.351E+02

 Pulay update with  2 previous iterations:
 mixing of old trial potential: alpha(m:m-4)=  0.774      0.207      0.191E-01
 dfpt_scfcv: previous iteration took  1.20 [s]

 ITER STEP NUMBER     4
 ETOT  4   12.083576880502     -3.091E-02 2.140E-03 1.047E+00

 Pulay update with  3 previous iterations:
 mixing of old trial potential: alpha(m:m-4)=   1.04      0.792E-02 -0.276E-01 -0.187E-01
 dfpt_scfcv: previous iteration took  1.18 [s]

 ITER STEP NUMBER     5
 ETOT  5   12.083437547808     -1.393E-04 2.918E-04 8.430E-03

 Pulay update with  4 previous iterations:
 mixing of old trial potential: alpha(m:m-4)=   1.01      0.243E-02 -0.132E-01 -0.229E-02 -0.348E-03
 dfpt_scfcv: previous iteration took  1.20 [s]

 ITER STEP NUMBER     6
 ETOT  6   12.083435753461     -1.794E-06 1.733E-05 3.035E-04

 Pulay update with  5 previous iterations:
 mixing of old trial potential: alpha(m:m-4)=  0.970      0.558E-01 -0.260E-01 -0.841E-03  0.441E-03
 dfpt_scfcv: previous iteration took  1.22 [s]

 ITER STEP NUMBER     7
 ETOT  7   12.083435714031     -3.943E-08 4.592E-06 9.944E-06

 Pulay update with  6 previous iterations:
 mixing of old trial potential: alpha(m:m-4)=  0.871      0.144     -0.109E-01 -0.472E-02  0.238E-03
 dfpt_scfcv: previous iteration took  1.20 [s]

 ITER STEP NUMBER     8
 ETOT  8   12.083435712761     -1.271E-09 2.817E-07 4.191E-07

 Pulay update with  7 previous iterations:
 mixing of old trial potential: alpha(m:m-4)=  0.929      0.976E-01 -0.257E-01 -0.149E-02  0.532E-03
 dfpt_scfcv: previous iteration took  1.21 [s]

 ITER STEP NUMBER     9
 ETOT  9   12.083435712707     -5.394E-11 7.630E-08 4.233E-09

 Pulay update with  7 previous iterations:
 mixing of old trial potential: alpha(m:m-4)=   1.08     -0.782E-01 -0.417E-02 -0.902E-03  0.219E-03
 dfpt_scfcv: previous iteration took  1.21 [s]

 ITER STEP NUMBER    10
 ETOT 10   12.083435712705     -1.307E-12 4.799E-09 6.579E-11

 Pulay update with  7 previous iterations:
 mixing of old trial potential: alpha(m:m-4)=  0.997      0.933E-02 -0.681E-02  0.431E-03 -0.311E-04
 dfpt_scfcv: previous iteration took  1.19 [s]

 ITER STEP NUMBER    11
 ETOT 11   12.083435712703     -2.331E-12 1.311E-09 2.656E-11

 Pulay update with  7 previous iterations:
 mixing of old trial potential: alpha(m:m-4)=  0.591      0.452     -0.399E-01 -0.299E-02  0.492E-04
 dfpt_scfcv: previous iteration took  1.19 [s]

 ITER STEP NUMBER    12
 ETOT 12   12.083435712706      2.842E-12 8.282E-11 2.639E-13

 Pulay update with  7 previous iterations:
 mixing of old trial potential: alpha(m:m-4)=   1.08     -0.197E-01 -0.581E-01 -0.391E-03  0.362E-03
 dfpt_scfcv: previous iteration took  1.19 [s]

 ITER STEP NUMBER    13
 ETOT 13   12.083435712705     -1.421E-12 2.262E-11 1.395E-15

 Pulay update with  7 previous iterations:
 mixing of old trial potential: alpha(m:m-4)=  0.996      0.207E-01 -0.927E-02 -0.782E-02  0.568E-03
 dfpt_scfcv: previous iteration took  1.20 [s]

 ITER STEP NUMBER    14
 ETOT 14   12.083435712707      2.672E-12 1.436E-12 1.537E-16

 Pulay update with  7 previous iterations:
 mixing of old trial potential: alpha(m:m-4)=  0.897      0.135     -0.331E-01 -0.189E-03  0.113E-02
 dfpt_scfcv: previous iteration took  1.20 [s]

 ITER STEP NUMBER    15
 ETOT 15   12.083435712706     -8.527E-13 3.927E-13 1.584E-18

 Pulay update with  7 previous iterations:
 mixing of old trial potential: alpha(m:m-4)=  0.981      0.474E-01 -0.269E-01 -0.247E-02  0.342E-03
 dfpt_scfcv: previous iteration took  1.18 [s]

 ITER STEP NUMBER    16
 ETOT 16   12.083435712707      9.095E-13 2.590E-14 6.632E-20

 At SCF step   16       vres2   =  6.63E-20 < tolvrs=  1.00E-18 =>converged.

 fftdatar_write: About to write data to: ddbo_DS2_DEN1 with iomode: IO_MODE_ETSF
- Creating HDf5 file with MPI-IO support: ddbo_DS2_DEN1.nc
 input_len, strlen:        2845     2000000
- Opening HDf5 file with MPI-IO support: ddbo_DS2_DEN1.nc
 IO operation , wall:  0.02 [s] , cpu:  0.01 [s] <<< TIME

 fftdatar_write: About to write data to: ddbo_DS2_POT1 with iomode: IO_MODE_ETSF
- Creating HDf5 file with MPI-IO support: ddbo_DS2_POT1.nc
 input_len, strlen:        2845     2000000
- Opening HDf5 file with MPI-IO support: ddbo_DS2_POT1.nc
 IO operation , wall:  0.02 [s] , cpu:  0.01 [s] <<< TIME
- Opening HDf5 file with MPI-IO support: ddbo_DS2_POT1.nc
================================================================================

 ----iterations are completed or convergence reached----

 Mean square residual over all n,k,spin=   66.509E-18; max=  25.895E-15
   0.0000  0.0000  0.0000    1  2.14672E-24 kpt; spin; max resid(k); each band:
  5.41E-26 4.47E-26 1.46E-25 2.81E-25 8.29E-26 8.31E-26 2.11E-25 2.15E-24
   0.1250  0.0000  0.0000    1  4.19134E-24 kpt; spin; max resid(k); each band:
  5.12E-26 1.39E-25 9.31E-26 1.08E-25 8.15E-26 8.20E-26 4.50E-25 4.19E-24
   0.2500  0.0000  0.0000    1  1.44416E-23 kpt; spin; max resid(k); each band:
  5.67E-26 9.77E-26 6.48E-26 8.07E-26 1.02E-25 6.16E-26 5.40E-25 1.44E-23
   0.3750  0.0000  0.0000    1  3.32696E-23 kpt; spin; max resid(k); each band:
  1.86E-25 4.77E-26 5.85E-26 7.60E-26 9.78E-26 8.77E-26 3.72E-25 3.33E-23
   0.5000  0.0000  0.0000    1  3.28061E-23 kpt; spin; max resid(k); each band:
  3.23E-26 1.46E-25 6.01E-26 7.85E-26 9.46E-26 8.83E-26 2.33E-25 3.28E-23
  -0.3750  0.0000  0.0000    1  2.64727E-23 kpt; spin; max resid(k); each band:
  1.82E-25 4.71E-26 5.84E-26 7.61E-26 9.58E-26 9.21E-26 3.75E-25 2.65E-23
  -0.2500  0.0000  0.0000    1  4.92785E-24 kpt; spin; max resid(k); each band:
  4.52E-26 9.68E-26 6.50E-26 8.12E-26 1.03E-25 6.28E-26 5.51E-25 4.93E-24
  -0.1250  0.0000  0.0000    1  3.09464E-24 kpt; spin; max resid(k); each band:
  5.00E-26 1.39E-25 9.37E-26 1.09E-25 7.99E-26 8.07E-26 4.72E-25 3.09E-24
   0.0000  0.1250  0.0000    1  2.85444E-23 kpt; spin; max resid(k); each band:
  6.57E-26 5.82E-26 7.50E-26 3.27E-25 1.69E-25 6.47E-25 3.61E-25 2.85E-23
   0.1250  0.1250  0.0000    1  3.13521E-23 kpt; spin; max resid(k); each band:
  6.49E-26 3.08E-26 2.41E-25 2.02E-25 2.62E-25 1.45E-25 8.49E-25 3.14E-23
   0.2500  0.1250  0.0000    1  2.50208E-24 kpt; spin; max resid(k); each band:
  5.54E-26 1.14E-25 4.22E-26 1.54E-25 1.45E-25 1.19E-24 8.71E-26 2.50E-24
   0.3750  0.1250  0.0000    1  1.97047E-24 kpt; spin; max resid(k); each band:
  7.12E-26 6.66E-26 4.55E-26 1.05E-25 1.55E-25 1.05E-24 2.04E-25 1.97E-24
   0.5000  0.1250  0.0000    1  1.39362E-23 kpt; spin; max resid(k); each band:
  3.32E-26 1.71E-25 9.30E-26 6.07E-26 1.76E-25 1.08E-25 6.34E-25 1.39E-23
  -0.3750  0.1250  0.0000    1  5.36144E-24 kpt; spin; max resid(k); each band:
  1.86E-25 2.87E-25 8.35E-26 5.29E-26 2.15E-25 8.61E-26 7.78E-25 5.36E-24
  -0.2500  0.1250  0.0000    1  1.47942E-24 kpt; spin; max resid(k); each band:
  5.54E-26 8.50E-26 7.66E-26 6.07E-26 6.05E-26 6.17E-25 1.03E-24 1.48E-24
  -0.1250  0.1250  0.0000    1  4.39192E-24 kpt; spin; max resid(k); each band:
  6.00E-26 6.93E-26 1.87E-25 7.82E-26 6.44E-26 6.42E-25 1.04E-24 4.39E-24
   0.0000  0.2500  0.0000    1  4.55711E-21 kpt; spin; max resid(k); each band:
  9.10E-26 5.73E-26 4.51E-26 3.63E-25 1.71E-25 1.13E-24 7.97E-25 4.56E-21
   0.1250  0.2500  0.0000    1  1.95231E-20 kpt; spin; max resid(k); each band:
  8.34E-26 9.54E-26 3.09E-25 2.71E-25 6.88E-25 1.82E-24 5.75E-25 1.95E-20
   0.2500  0.2500  0.0000    1  2.49751E-24 kpt; spin; max resid(k); each band:
  6.82E-26 9.07E-26 3.56E-25 2.58E-25 3.04E-25 1.92E-24 6.49E-25 2.50E-24
   0.3750  0.2500  0.0000    1  2.04773E-24 kpt; spin; max resid(k); each band:
  7.49E-26 3.99E-26 1.84E-25 7.31E-26 3.07E-25 6.13E-25 1.12E-24 2.05E-24
   0.5000  0.2500  0.0000    1  2.11092E-24 kpt; spin; max resid(k); each band:
  1.10E-25 2.40E-25 1.61E-25 7.61E-26 3.43E-25 1.28E-24 4.27E-25 2.11E-24
  -0.3750  0.2500  0.0000    1  2.34811E-24 kpt; spin; max resid(k); each band:
  1.22E-25 2.54E-25 1.49E-25 6.58E-26 3.13E-25 1.96E-25 2.29E-24 2.35E-24
  -0.2500  0.2500  0.0000    1  2.41506E-23 kpt; spin; max resid(k); each band:
  9.19E-26 9.44E-26 1.45E-25 6.34E-26 3.52E-25 5.78E-26 1.42E-24 2.42E-23
  -0.1250  0.2500  0.0000    1  4.64521E-23 kpt; spin; max resid(k); each band:
  8.05E-26 6.45E-26 2.50E-25 7.05E-26 6.43E-26 6.32E-25 1.11E-24 4.65E-23
   0.0000  0.3750  0.0000    1  4.15877E-22 kpt; spin; max resid(k); each band:
  1.23E-25 7.81E-26 5.08E-26 3.53E-25 9.73E-26 6.54E-25 5.83E-25 4.16E-22
   0.1250  0.3750  0.0000    1  3.59992E-20 kpt; spin; max resid(k); each band:
  1.74E-25 1.05E-25 2.45E-25 2.94E-25 5.01E-25 7.05E-25 1.99E-24 3.60E-20
   0.2500  0.3750  0.0000    1  1.14610E-20 kpt; spin; max resid(k); each band:
  1.27E-25 1.41E-25 4.52E-26 7.59E-26 3.66E-25 4.64E-24 2.02E-22 1.15E-20
   0.3750  0.3750  0.0000    1  9.07241E-21 kpt; spin; max resid(k); each band:
  1.20E-25 6.15E-26 9.17E-26 1.75E-25 3.82E-25 6.03E-25 2.98E-24 9.07E-21
   0.5000  0.3750  0.0000    1  6.94322E-22 kpt; spin; max resid(k); each band:
  1.51E-25 2.96E-26 1.54E-25 1.18E-25 4.07E-25 4.40E-25 2.11E-24 6.94E-22
  -0.3750  0.3750  0.0000    1  1.15353E-22 kpt; spin; max resid(k); each band:
  2.00E-25 7.82E-26 1.60E-25 9.04E-26 3.99E-25 1.04E-24 5.31E-24 1.15E-22
  -0.2500  0.3750  0.0000    1  2.10076E-22 kpt; spin; max resid(k); each band:
  1.26E-25 1.66E-25 1.55E-25 7.04E-26 3.45E-25 7.39E-26 2.46E-24 2.10E-22
  -0.1250  0.3750  0.0000    1  7.03681E-21 kpt; spin; max resid(k); each band:
  1.06E-25 1.02E-25 2.81E-25 6.06E-26 4.87E-25 3.75E-26 5.79E-25 7.04E-21
   0.0000  0.5000  0.0000    1  2.10291E-22 kpt; spin; max resid(k); each band:
  1.31E-25 7.15E-26 6.40E-26 3.39E-25 6.05E-26 4.33E-25 7.10E-25 2.10E-22
   0.1250  0.5000  0.0000    1  4.83783E-21 kpt; spin; max resid(k); each band:
  1.71E-25 1.25E-25 2.45E-25 5.31E-26 3.96E-25 6.31E-26 7.32E-25 4.84E-21
   0.2500  0.5000  0.0000    1  2.00683E-23 kpt; spin; max resid(k); each band:
  1.69E-25 1.75E-25 1.19E-25 7.70E-26 3.84E-25 2.75E-24 2.01E-23 1.95E-23
   0.3750  0.5000  0.0000    1  1.39450E-19 kpt; spin; max resid(k); each band:
  1.53E-25 7.73E-26 1.16E-25 1.21E-25 3.63E-25 7.17E-25 1.69E-22 1.39E-19
   0.5000  0.5000  0.0000    1  5.05087E-21 kpt; spin; max resid(k); each band:
  2.24E-25 1.68E-25 1.45E-25 1.33E-25 5.47E-25 2.21E-25 3.29E-24 5.05E-21
  -0.3750  0.5000  0.0000    1  1.81334E-19 kpt; spin; max resid(k); each band:
  1.57E-25 7.67E-26 1.16E-25 1.21E-25 3.62E-25 7.53E-25 1.99E-22 1.81E-19
  -0.2500  0.5000  0.0000    1  1.79119E-23 kpt; spin; max resid(k); each band:
  1.77E-25 1.74E-25 1.19E-25 7.64E-26 4.10E-25 2.86E-24 1.79E-23 1.35E-23
  -0.1250  0.5000  0.0000    1  4.53653E-21 kpt; spin; max resid(k); each band:
  1.33E-25 1.24E-25 2.47E-25 5.31E-26 4.19E-25 6.16E-26 5.76E-25 4.54E-21
   0.0000 -0.3750  0.0000    1  5.25835E-23 kpt; spin; max resid(k); each band:
  1.20E-25 7.66E-26 5.12E-26 3.52E-25 9.69E-26 6.70E-25 6.70E-25 5.26E-23
   0.1250 -0.3750  0.0000    1  6.46057E-21 kpt; spin; max resid(k); each band:
  1.08E-25 1.00E-25 2.78E-25 6.09E-26 4.71E-25 3.81E-26 6.61E-25 6.46E-21
   0.2500 -0.3750  0.0000    1  1.57115E-22 kpt; spin; max resid(k); each band:
  1.29E-25 1.64E-25 1.55E-25 7.11E-26 3.12E-25 7.10E-26 4.31E-24 1.57E-22
   0.3750 -0.3750  0.0000    1  1.17889E-22 kpt; spin; max resid(k); each band:
  1.97E-25 7.66E-26 1.59E-25 8.97E-26 3.88E-25 9.91E-25 5.37E-24 1.18E-22
   0.5000 -0.3750  0.0000    1  1.05480E-21 kpt; spin; max resid(k); each band:
  1.50E-25 2.91E-26 1.54E-25 1.18E-25 3.94E-25 4.36E-25 2.54E-24 1.05E-21
  -0.3750 -0.3750  0.0000    1  1.12865E-20 kpt; spin; max resid(k); each band:
  1.15E-25 6.05E-26 9.19E-26 1.73E-25 3.74E-25 6.20E-25 1.91E-24 1.13E-20
  -0.2500 -0.3750  0.0000    1  4.68009E-22 kpt; spin; max resid(k); each band:
  1.30E-25 1.40E-25 4.36E-26 7.57E-26 3.80E-25 4.22E-24 1.81E-22 4.68E-22
  -0.1250 -0.3750  0.0000    1  3.17848E-20 kpt; spin; max resid(k); each band:
  1.64E-25 1.04E-25 2.41E-25 2.98E-25 5.11E-25 6.34E-25 1.52E-24 3.18E-20
   0.0000 -0.2500  0.0000    1  3.45207E-21 kpt; spin; max resid(k); each band:
  8.60E-26 5.64E-26 4.65E-26 3.63E-25 1.68E-25 1.18E-24 9.13E-25 3.45E-21
   0.1250 -0.2500  0.0000    1  2.71592E-23 kpt; spin; max resid(k); each band:
  7.73E-26 6.27E-26 2.47E-25 7.11E-26 6.45E-26 6.27E-25 1.23E-24 2.72E-23
 outresid : prtvol=0 or 1, do not print more k-points.


 Thirteen components of 2nd-order total energy (hartree) are
 1,2,3: 0th-order hamiltonian combined with 1st-order wavefunctions
     kin0=   3.75290008E+02 eigvalue=  -1.01001429E+01  local=  -1.35757206E+02
 4,5,6: 1st-order hamiltonian combined with 1st and 0th-order wfs
 loc psp =  -2.04521949E+02  Hartree=   5.79764223E+01     xc=  -1.08528109E+01
 note that "loc psp" includes a xc core correction that could be resolved
 7,8,9: eventually, occupation + non-local contributions
    edocc=   1.29197401E+01     enl0=   1.06209556E+02   enl1=  -5.86849184E+02
 1-9 gives the relaxation energy (to be shifted if some occ is /=2.0)
   erelax=  -3.95685566E+02
 10,11,12 Non-relaxation  contributions : frozen-wavefunctions and Ewald
 fr.local=   5.03481202E+01 fr.nonlo=   3.02374634E+02  Ewald=   5.68459911E+01
 dfpt_prtene : non-relax=    4.095687E+02
 13,14 Frozen wf xc core corrections (1) and (2)
 frxc 1  =  -1.12048086E+01  frxc 2 =   9.40506583E+00
 Resulting in :
 2DEtotal=    0.1208343571E+02 Ha. Also 2DEtotal=    0.328807007526E+03 eV
    (2DErelax=   -3.9568556639E+02 Ha. 2DEnonrelax=    4.0776900210E+02 Ha)
    (  non-var. 2DEtotal :    1.2083435713E+01 Ha)


--------------------------------------------------------------------------------
 Perturbation wavevector (in red.coord.)   0.500000  0.000000  0.000000
 Perturbation : displacement of atom   1   along direction   2
 littlegroup_pert: only one element in the set of symmetries for this perturbation:
   1   0   0   0   1   0   0   0   1
 symatm: atom number 1 is reached starting at atom
   1
 symatm: atom number 2 is reached starting at atom
   2
 symkpt : not enough symmetry to change the number of k points.
 getmpw: optimal value of mpw= 1124
 Memory required for psi0_k, psi0_kq, psi1_kq: 52.7 [Mb] <<< MEM
 About to read wavefunctions from: groundstateo_WFK.nc
 wfk_read_my_kptbands: , wall:  0.02 [s] , cpu:  0.02 [s] <<< TIME
 getmpw: optimal value of mpw= 1124
 About to read wavefunctions from: groundstateo_WFK.nc
 wfk_read_my_kptbands: , wall:  0.02 [s] , cpu:  0.02 [s] <<< TIME
 Initialisation of the first-order wave-functions :
  ireadwf=   0
 Initializing rhor1 from valence densities taken from pseudopotential files

 getcut: wavevector=  0.0000  0.0000  0.0000  ngfft=  30  30  30
         ecut(hartree)=     45.000   => boxcut(ratio)=   2.08343

 ITER STEP NUMBER     1
-ETOT  1   9.4194160409837     -3.641E+02 3.319E+00 1.603E+03

 Simple mixing update:
  residual square of the potential:    961.83904020979583
 dfpt_scfcv: previous iteration took  1.97 [s]

 ITER STEP NUMBER     2
 ETOT  2   8.9390746767252     -4.803E-01 5.597E-01 1.565E+01

 Pulay update with  1 previous iterations:
 mixing of old trial potential: alpha(m:m-4)=  0.926      0.744E-01
 dfpt_scfcv: previous iteration took  2.12 [s]

 ITER STEP NUMBER     3
 ETOT  3   8.9343668073781     -4.708E-03 1.981E-02 2.551E-01

 Pulay update with  2 previous iterations:
 mixing of old trial potential: alpha(m:m-4)=   1.08     -0.629E-01 -0.167E-01
 dfpt_scfcv: previous iteration took  2.04 [s]

 ITER STEP NUMBER     4
 ETOT  4   8.9343286407492     -3.817E-05 6.149E-03 3.257E-03

 Pulay update with  3 previous iterations:
 mixing of old trial potential: alpha(m:m-4)=   1.00      0.653E-02 -0.563E-02 -0.566E-03
 dfpt_scfcv: previous iteration took  2.04 [s]

 ITER STEP NUMBER     5
 ETOT  5   8.9343284277738     -2.130E-07 3.705E-04 2.009E-03

 Pulay update with  4 previous iterations:
 mixing of old trial potential: alpha(m:m-4)=  0.609      0.438     -0.482E-01  0.557E-03  0.537E-03
 dfpt_scfcv: previous iteration took  2.23 [s]

 ITER STEP NUMBER     6
 ETOT  6   8.9343279814631     -4.463E-07 9.948E-05 8.390E-06

 Pulay update with  5 previous iterations:
 mixing of old trial potential: alpha(m:m-4)=   1.00      0.291E-01 -0.286E-01 -0.180E-02  0.242E-03
 dfpt_scfcv: previous iteration took  2.18 [s]

 ITER STEP NUMBER     7
 ETOT  7   8.9343279796259     -1.837E-09 6.404E-06 5.530E-08

 Pulay update with  6 previous iterations:
 mixing of old trial potential: alpha(m:m-4)=   1.03     -0.135E-01 -0.977E-02 -0.539E-02  0.808E-03
 dfpt_scfcv: previous iteration took  2.18 [s]

 ITER STEP NUMBER     8
 ETOT  8   8.9343279796169     -9.038E-12 1.724E-06 3.670E-09

 Pulay update with  7 previous iterations:
 mixing of old trial potential: alpha(m:m-4)=  0.874      0.147     -0.188E-01 -0.179E-02 -0.344E-03
 dfpt_scfcv: previous iteration took  2.14 [s]

 ITER STEP NUMBER     9
 ETOT  9   8.9343279796167     -1.705E-13 1.116E-07 1.133E-10

 Pulay update with  7 previous iterations:
 mixing of old trial potential: alpha(m:m-4)=  0.886      0.126     -0.988E-02 -0.160E-02  0.168E-04
 dfpt_scfcv: previous iteration took  2.16 [s]

 ITER STEP NUMBER    10
 ETOT 10   8.9343279796158     -9.095E-13 3.086E-08 4.819E-13

 Pulay update with  7 previous iterations:
 mixing of old trial potential: alpha(m:m-4)=   1.04     -0.191E-01 -0.147E-01 -0.156E-02  0.196E-03
 dfpt_scfcv: previous iteration took  2.23 [s]

 ITER STEP NUMBER    11
 ETOT 11   8.9343279796167      9.095E-13 1.986E-09 2.427E-14

 Pulay update with  7 previous iterations:
 mixing of old trial potential: alpha(m:m-4)=  0.877      0.132     -0.726E-02 -0.229E-02 -0.921E-04
 dfpt_scfcv: previous iteration took  2.12 [s]

 ITER STEP NUMBER    12
 ETOT 12   8.9343279796154     -1.364E-12 5.653E-10 6.215E-15

 Pulay update with  7 previous iterations:
 mixing of old trial potential: alpha(m:m-4)=  0.660      0.341      0.241E-02 -0.274E-02 -0.394E-03
 dfpt_scfcv: previous iteration took  2.20 [s]

 ITER STEP NUMBER    13
 ETOT 13   8.9343279796164      1.023E-12 3.616E-11 1.744E-16

 Pulay update with  7 previous iterations:
 mixing of old trial potential: alpha(m:m-4)=  0.802      0.174      0.331E-01 -0.832E-02 -0.233E-03
 dfpt_scfcv: previous iteration took  2.20 [s]

 ITER STEP NUMBER    14
 ETOT 14   8.9343279796142     -2.160E-12 1.054E-11 3.336E-19

 At SCF step   14       vres2   =  3.34E-19 < tolvrs=  1.00E-18 =>converged.

 fftdatar_write: About to write data to: ddbo_DS2_DEN2 with iomode: IO_MODE_ETSF
- Creating HDf5 file with MPI-IO support: ddbo_DS2_DEN2.nc
 input_len, strlen:        2845     2000000
- Opening HDf5 file with MPI-IO support: ddbo_DS2_DEN2.nc
 IO operation , wall:  0.02 [s] , cpu:  0.01 [s] <<< TIME

 fftdatar_write: About to write data to: ddbo_DS2_POT2 with iomode: IO_MODE_ETSF
- Creating HDf5 file with MPI-IO support: ddbo_DS2_POT2.nc
 input_len, strlen:        2845     2000000
- Opening HDf5 file with MPI-IO support: ddbo_DS2_POT2.nc
 IO operation , wall:  0.02 [s] , cpu:  0.01 [s] <<< TIME
- Opening HDf5 file with MPI-IO support: ddbo_DS2_POT2.nc
================================================================================

 ----iterations are completed or convergence reached----

 Mean square residual over all n,k,spin=   10.814E-15; max=  10.536E-12
   0.0000  0.0000  0.0000    1  9.64029E-23 kpt; spin; max resid(k); each band:
  1.35E-24 5.81E-23 1.24E-23 2.51E-23 2.68E-23 6.99E-24 6.87E-24 9.64E-23
   0.1250  0.0000  0.0000    1  8.58583E-23 kpt; spin; max resid(k); each band:
  1.36E-24 9.26E-24 7.51E-24 4.89E-23 2.66E-23 8.38E-24 3.73E-23 8.59E-23
   0.2500  0.0000  0.0000    1  6.14200E-23 kpt; spin; max resid(k); each band:
  2.70E-24 4.38E-24 5.27E-24 4.77E-24 4.46E-24 7.56E-24 4.47E-23 6.14E-23
   0.3750  0.0000  0.0000    1  5.57166E-23 kpt; spin; max resid(k); each band:
  1.01E-24 1.88E-24 3.69E-23 4.11E-24 3.84E-24 5.11E-24 3.04E-23 5.57E-23
   0.5000  0.0000  0.0000    1  8.20377E-23 kpt; spin; max resid(k); each band:
  1.38E-24 1.15E-24 3.85E-23 4.12E-24 5.00E-24 5.07E-24 1.56E-23 8.20E-23
  -0.3750  0.0000  0.0000    1  4.55406E-23 kpt; spin; max resid(k); each band:
  1.03E-24 2.06E-24 3.87E-23 4.15E-24 3.86E-24 5.07E-24 3.10E-23 4.55E-23
  -0.2500  0.0000  0.0000    1  6.38931E-23 kpt; spin; max resid(k); each band:
  2.78E-24 4.80E-24 5.07E-24 4.75E-24 4.89E-24 7.43E-24 4.48E-23 6.39E-23
  -0.1250  0.0000  0.0000    1  8.39424E-23 kpt; spin; max resid(k); each band:
  1.32E-24 9.56E-24 7.17E-24 4.80E-23 2.31E-23 8.43E-24 3.72E-23 8.39E-23
   0.0000  0.1250  0.0000    1  7.49779E-22 kpt; spin; max resid(k); each band:
  1.26E-24 4.80E-24 6.75E-24 2.34E-23 1.36E-23 4.75E-23 9.92E-24 7.50E-22
   0.1250  0.1250  0.0000    1  5.61496E-22 kpt; spin; max resid(k); each band:
  1.43E-24 2.87E-23 1.65E-23 1.58E-23 1.73E-23 7.75E-24 5.85E-23 5.61E-22
   0.2500  0.1250  0.0000    1  7.84680E-23 kpt; spin; max resid(k); each band:
  1.85E-24 5.54E-24 3.00E-23 9.17E-24 1.34E-23 7.85E-23 6.36E-24 4.18E-23
   0.3750  0.1250  0.0000    1  7.33655E-23 kpt; spin; max resid(k); each band:
  3.50E-24 2.58E-24 2.66E-23 6.02E-24 4.92E-24 7.34E-23 5.21E-24 2.29E-23
   0.5000  0.1250  0.0000    1  4.87602E-23 kpt; spin; max resid(k); each band:
  2.03E-24 1.24E-24 5.12E-24 3.45E-23 3.48E-24 5.25E-24 4.88E-23 4.02E-23
  -0.3750  0.1250  0.0000    1  5.94474E-23 kpt; spin; max resid(k); each band:
  6.09E-24 1.90E-24 4.59E-24 3.63E-23 7.47E-24 7.67E-24 5.94E-23 1.29E-23
  -0.2500  0.1250  0.0000    1  8.87757E-23 kpt; spin; max resid(k); each band:
  2.66E-24 3.95E-24 4.61E-24 4.01E-23 3.49E-23 3.84E-23 8.88E-23 1.77E-23
  -0.1250  0.1250  0.0000    1  7.78176E-23 kpt; spin; max resid(k); each band:
  1.32E-24 4.18E-24 1.05E-23 5.92E-24 1.99E-23 7.78E-23 7.10E-23 2.72E-23
   0.0000  0.2500  0.0000    1  3.56910E-19 kpt; spin; max resid(k); each band:
  1.35E-24 3.75E-24 2.86E-23 2.24E-23 2.38E-23 8.29E-23 4.22E-23 3.57E-19
   0.1250  0.2500  0.0000    1  2.22215E-18 kpt; spin; max resid(k); each band:
  1.08E-24 6.08E-24 1.93E-23 2.35E-23 3.52E-23 5.24E-23 2.56E-23 2.22E-18
   0.2500  0.2500  0.0000    1  1.66828E-22 kpt; spin; max resid(k); each band:
  1.45E-24 6.02E-24 1.96E-23 1.51E-23 1.82E-23 2.56E-23 5.06E-23 1.67E-22
   0.3750  0.2500  0.0000    1  1.48812E-22 kpt; spin; max resid(k); each band:
  2.21E-24 1.52E-24 1.05E-23 2.75E-23 7.78E-24 1.05E-23 3.42E-23 1.49E-22
   0.5000  0.2500  0.0000    1  2.03768E-22 kpt; spin; max resid(k); each band:
  6.00E-24 1.23E-24 8.07E-24 3.19E-23 3.37E-24 1.95E-23 1.12E-23 2.04E-22
  -0.3750  0.2500  0.0000    1  1.63371E-22 kpt; spin; max resid(k); each band:
  9.51E-24 1.85E-24 7.18E-24 4.15E-24 3.92E-24 1.47E-23 1.63E-22 2.63E-23
  -0.2500  0.2500  0.0000    1  6.52447E-21 kpt; spin; max resid(k); each band:
  5.41E-24 4.27E-24 7.84E-24 1.90E-23 1.39E-23 3.41E-23 2.06E-22 6.52E-21
  -0.1250  0.2500  0.0000    1  9.09310E-22 kpt; spin; max resid(k); each band:
  2.86E-24 3.20E-24 1.45E-23 3.17E-23 2.16E-23 3.35E-23 1.37E-22 9.09E-22
   0.0000  0.3750  0.0000    1  1.50228E-19 kpt; spin; max resid(k); each band:
  5.05E-24 3.68E-24 9.89E-24 2.45E-23 1.23E-23 4.56E-23 5.99E-23 1.50E-19
   0.1250  0.3750  0.0000    1  4.20326E-18 kpt; spin; max resid(k); each band:
  6.00E-24 5.67E-24 6.40E-24 2.22E-23 3.17E-23 5.78E-23 9.88E-23 4.20E-18
   0.2500  0.3750  0.0000    1  7.02609E-19 kpt; spin; max resid(k); each band:
  4.84E-24 7.99E-24 3.00E-24 1.85E-23 1.52E-23 3.30E-23 1.19E-19 7.03E-19
   0.3750  0.3750  0.0000    1  3.65662E-18 kpt; spin; max resid(k); each band:
  3.12E-24 3.93E-24 2.69E-23 8.80E-24 1.17E-23 9.32E-24 1.38E-21 3.66E-18
   0.5000  0.3750  0.0000    1  7.19230E-20 kpt; spin; max resid(k); each band:
  8.28E-24 2.31E-24 6.90E-24 3.51E-23 4.08E-24 1.18E-23 2.57E-23 7.19E-20
  -0.3750  0.3750  0.0000    1  4.40548E-22 kpt; spin; max resid(k); each band:
  1.59E-24 4.15E-24 8.10E-24 2.77E-23 3.72E-24 3.34E-23 4.41E-22 1.35E-22
  -0.2500  0.3750  0.0000    1  4.38703E-21 kpt; spin; max resid(k); each band:
  1.26E-24 7.18E-24 8.97E-24 2.95E-23 6.80E-24 1.18E-23 9.76E-23 4.39E-21
  -0.1250  0.3750  0.0000    1  1.00385E-19 kpt; spin; max resid(k); each band:
  7.42E-24 4.31E-24 1.80E-23 8.95E-24 2.38E-23 6.74E-24 7.73E-23 1.00E-19
   0.0000  0.5000  0.0000    1  1.03470E-21 kpt; spin; max resid(k); each band:
  1.62E-24 2.72E-24 4.58E-24 2.52E-23 4.91E-24 2.98E-23 4.73E-23 1.03E-21
   0.1250  0.5000  0.0000    1  8.82225E-20 kpt; spin; max resid(k); each band:
  1.38E-24 5.59E-24 1.72E-23 6.80E-24 2.64E-23 1.62E-23 3.11E-23 8.82E-20
   0.2500  0.5000  0.0000    1  2.29532E-21 kpt; spin; max resid(k); each band:
  1.33E-23 9.18E-24 7.64E-24 1.89E-23 8.91E-24 6.24E-23 8.25E-22 2.30E-21
   0.3750  0.5000  0.0000    1  1.20763E-18 kpt; spin; max resid(k); each band:
  9.28E-24 4.63E-24 6.10E-24 3.32E-23 5.28E-24 2.17E-23 2.01E-20 1.21E-18
   0.5000  0.5000  0.0000    1  3.77244E-19 kpt; spin; max resid(k); each band:
  1.29E-23 1.43E-23 3.85E-23 5.48E-24 9.17E-24 1.03E-23 7.00E-22 3.77E-19
  -0.3750  0.5000  0.0000    1  1.25781E-18 kpt; spin; max resid(k); each band:
  9.90E-24 4.57E-24 6.10E-24 3.34E-23 7.08E-24 1.62E-23 2.21E-20 1.26E-18
  -0.2500  0.5000  0.0000    1  1.73389E-21 kpt; spin; max resid(k); each band:
  1.73E-24 8.93E-24 7.82E-24 1.92E-23 7.62E-24 6.38E-23 1.00E-21 1.73E-21
  -0.1250  0.5000  0.0000    1  1.37265E-19 kpt; spin; max resid(k); each band:
  1.32E-24 5.77E-24 1.65E-23 7.35E-24 2.35E-23 9.04E-24 3.88E-23 1.37E-19
   0.0000 -0.3750  0.0000    1  1.15740E-19 kpt; spin; max resid(k); each band:
  6.27E-24 4.16E-24 6.51E-24 2.44E-23 1.10E-23 4.65E-23 5.99E-23 1.16E-19
   0.1250 -0.3750  0.0000    1  3.28626E-20 kpt; spin; max resid(k); each band:
  7.28E-24 4.61E-24 1.89E-23 1.06E-23 2.71E-23 6.53E-24 7.24E-23 3.29E-20
   0.2500 -0.3750  0.0000    1  9.56824E-21 kpt; spin; max resid(k); each band:
  1.31E-24 7.36E-24 9.17E-24 2.70E-23 1.05E-23 2.40E-23 6.95E-23 9.57E-21
   0.3750 -0.3750  0.0000    1  3.81758E-22 kpt; spin; max resid(k); each band:
  1.64E-24 3.91E-24 8.36E-24 2.52E-23 3.64E-24 3.74E-23 3.82E-22 1.39E-22
[...]
  1.86E-24 4.08E-24 3.10E-24 6.34E-24 1.54E-23 1.11E-23 2.07E-23 5.79E-19
   0.1250  0.3750  0.0000    1  2.03344E-22 kpt; spin; max resid(k); each band:
  1.98E-24 3.05E-24 2.75E-24 6.29E-24 1.38E-23 2.00E-23 2.63E-23 2.03E-22
   0.2500  0.3750  0.0000    1  6.86871E-23 kpt; spin; max resid(k); each band:
  2.32E-24 5.82E-24 1.44E-23 1.79E-24 1.11E-23 2.31E-23 6.87E-23 9.31E-24
   0.3750  0.3750  0.0000    1  8.69180E-21 kpt; spin; max resid(k); each band:
  2.30E-24 6.64E-24 3.82E-24 3.87E-24 6.77E-24 1.17E-23 8.69E-21 1.48E-22
   0.5000  0.3750  0.0000    1  7.22189E-21 kpt; spin; max resid(k); each band:
  2.10E-24 3.04E-24 2.21E-24 1.65E-24 9.02E-24 1.03E-23 7.22E-21 5.66E-21
  -0.3750  0.3750  0.0000    1  8.56571E-22 kpt; spin; max resid(k); each band:
  2.59E-24 2.86E-24 3.76E-24 2.25E-24 1.11E-23 3.20E-23 6.24E-23 8.57E-22
  -0.2500  0.3750  0.0000    1  3.90126E-21 kpt; spin; max resid(k); each band:
  1.32E-24 3.24E-24 8.27E-24 3.34E-24 1.45E-23 2.62E-23 5.15E-23 3.90E-21
  -0.1250  0.3750  0.0000    1  1.03688E-17 kpt; spin; max resid(k); each band:
  1.55E-24 6.06E-24 3.97E-24 3.69E-24 1.48E-23 2.56E-23 2.42E-23 1.04E-17
   0.0000  0.5000  0.0000    1  2.19871E-20 kpt; spin; max resid(k); each band:
  1.20E-24 1.86E-24 3.00E-24 4.05E-24 2.56E-23 5.24E-24 1.23E-23 2.20E-20
   0.1250  0.5000  0.0000    1  1.12534E-20 kpt; spin; max resid(k); each band:
  1.40E-24 2.18E-24 3.28E-24 2.98E-24 1.60E-23 2.59E-23 1.31E-23 1.13E-20
   0.2500  0.5000  0.0000    1  3.94590E-23 kpt; spin; max resid(k); each band:
  2.40E-24 2.01E-24 7.16E-24 1.91E-24 9.81E-24 3.95E-23 2.66E-23 2.12E-23
   0.3750  0.5000  0.0000    1  9.00502E-21 kpt; spin; max resid(k); each band:
  2.08E-24 4.22E-24 1.84E-24 3.68E-24 6.25E-24 1.09E-23 9.01E-21 2.81E-21
   0.5000  0.5000  0.0000    1  2.78266E-16 kpt; spin; max resid(k); each band:
  2.81E-24 7.58E-24 2.04E-24 2.07E-24 1.73E-23 5.33E-24 2.78E-16 4.99E-18
  -0.3750  0.5000  0.0000    1  9.04280E-21 kpt; spin; max resid(k); each band:
  2.98E-24 3.85E-24 1.80E-24 3.86E-24 5.49E-24 1.21E-23 9.04E-21 2.84E-21
  -0.2500  0.5000  0.0000    1  4.54028E-23 kpt; spin; max resid(k); each band:
  2.75E-24 1.88E-24 9.41E-24 2.25E-24 7.64E-24 4.54E-23 2.69E-23 2.18E-23
  -0.1250  0.5000  0.0000    1  1.19891E-20 kpt; spin; max resid(k); each band:
  1.56E-24 2.12E-24 4.05E-24 3.13E-24 1.10E-23 2.58E-23 1.36E-23 1.20E-20
   0.0000 -0.3750  0.0000    1  5.81934E-19 kpt; spin; max resid(k); each band:
  1.98E-24 3.32E-24 3.40E-24 6.14E-24 1.60E-23 9.64E-24 2.07E-23 5.82E-19
   0.1250 -0.3750  0.0000    1  1.04031E-17 kpt; spin; max resid(k); each band:
  1.69E-24 4.97E-24 2.97E-24 3.72E-24 2.20E-23 2.64E-23 2.27E-23 1.04E-17
   0.2500 -0.3750  0.0000    1  3.62141E-21 kpt; spin; max resid(k); each band:
  1.57E-24 3.08E-24 5.60E-24 3.00E-24 1.69E-23 2.79E-23 4.87E-23 3.62E-21
   0.3750 -0.3750  0.0000    1  8.28602E-22 kpt; spin; max resid(k); each band:
  2.40E-24 2.21E-24 3.56E-24 1.96E-24 1.10E-23 3.03E-23 6.36E-23 8.29E-22
   0.5000 -0.3750  0.0000    1  7.23176E-21 kpt; spin; max resid(k); each band:
  1.56E-24 3.28E-24 2.56E-24 1.62E-24 7.74E-24 1.05E-23 7.23E-21 5.36E-21
  -0.3750 -0.3750  0.0000    1  8.58498E-21 kpt; spin; max resid(k); each band:
  2.78E-24 7.53E-24 4.36E-24 3.84E-24 5.61E-24 1.23E-23 8.58E-21 1.50E-22
  -0.2500 -0.3750  0.0000    1  6.94725E-23 kpt; spin; max resid(k); each band:
  2.64E-24 6.16E-24 2.44E-24 2.20E-24 8.14E-24 2.43E-23 6.95E-23 9.52E-24
  -0.1250 -0.3750  0.0000    1  2.32629E-22 kpt; spin; max resid(k); each band:
  2.04E-24 2.92E-24 3.19E-24 6.31E-24 9.06E-24 2.09E-23 2.69E-23 2.33E-22
   0.0000 -0.2500  0.0000    1  6.76966E-19 kpt; spin; max resid(k); each band:
  1.63E-24 4.49E-24 5.02E-24 9.73E-24 4.31E-24 1.68E-23 4.77E-23 6.77E-19
   0.1250 -0.2500  0.0000    1  1.05768E-14 kpt; spin; max resid(k); each band:
  1.56E-24 4.41E-24 4.48E-24 3.78E-24 9.30E-24 2.85E-23 7.45E-23 1.06E-14
 outresid : prtvol=0 or 1, do not print more k-points.


 Thirteen components of 2nd-order total energy (hartree) are
 1,2,3: 0th-order hamiltonian combined with 1st-order wavefunctions
     kin0=   3.73727203E+02 eigvalue=  -9.79736191E+00  local=  -1.35104852E+02
 4,5,6: 1st-order hamiltonian combined with 1st and 0th-order wfs
 loc psp =  -1.82091546E+02  Hartree=   4.68503314E+01     xc=  -1.07933479E+01
 note that "loc psp" includes a xc core correction that could be resolved
 7,8,9: eventually, occupation + non-local contributions
    edocc=   1.27151296E+01     enl0=   1.06324816E+02   enl1=  -5.85752290E+02
 1-9 gives the relaxation energy (to be shifted if some occ is /=2.0)
   erelax=  -3.83921918E+02
 10,11,12 Non-relaxation  contributions : frozen-wavefunctions and Ewald
 fr.local=   5.03481202E+01 fr.nonlo=   3.02374634E+02  Ewald=   4.48457263E+01
 dfpt_prtene : non-relax=    3.975685E+02
 13,14 Frozen wf xc core corrections (1) and (2)
 frxc 1  =  -1.12048086E+01  frxc 2 =   9.40506583E+00
 Resulting in :
 2DEtotal=    0.1184681914E+02 Ha. Also 2DEtotal=    0.322368343178E+03 eV
    (2DErelax=   -3.8392191822E+02 Ha. 2DEnonrelax=    3.9576873737E+02 Ha)
    (  non-var. 2DEtotal :    1.1846819141E+01 Ha)

================================================================================

 ---- first-order wavefunction calculations are completed ----


 ==> Compute Derivative Database <==
- Creating HDf5 file with MPI-IO support: ddbo_DS3_DDB.nc
 input_len, strlen:        2845     2000000
 
 phonon wavelength (reduced coordinates) , norm, and energies in hartree
  0.50 0.50 0.00 1.00
  3.565957334E-03  3.565957334E-03  4.820184454E-03  4.820184454E-03  5.432600577E-03
  5.432600577E-03

 Zero Point Motion energy (sum of freqs/2)=  1.381874236E-02
 dataset: 3 , wall: 30.32 [s] , cpu: 30.29 [s] <<< TIME

== END DATASET(S) ==============================================================
================================================================================
  
 -outvars: echo values of variables after computation  --------
 
 These variables are accessible in NetCDF format (ddbo_OUT.nc)

-          iomode           3
            acell      6.7510000000E+00  6.7510000000E+00  6.7510000000E+00 Bohr
              amu      1.20110000E+01
           diemac      1.20000000E+01
             ecut      4.50000000E+01 Hartree
           etotal1     8.6213344446E+00
           etotal2     8.9343279796E+00
           etotal3     1.1846819141E+01
            fcart1     0.0000000000E+00  0.0000000000E+00  0.0000000000E+00
                       0.0000000000E+00  0.0000000000E+00  0.0000000000E+00
            fcart2     0.0000000000E+00  0.0000000000E+00  0.0000000000E+00
                       0.0000000000E+00  0.0000000000E+00  0.0000000000E+00
            fcart3     0.0000000000E+00  0.0000000000E+00  0.0000000000E+00
                       0.0000000000E+00  0.0000000000E+00  0.0000000000E+00
-          fftalg         312
           istwfk        1    0    0    0    1    0    0    0    0    0
                         0    0    0    0    0    0    0    0    0    0
                         0    0    0    0    0    0    0    0    0    0
                         0    0    1    0    0    0    1    0    0    0
                         0    0    0    0    0    0    0    0    0    0
                       outvar_i_n : Printing only first  50 k-points.
              ixc          11
           jdtset        1    2    3
              kpt      0.00000000E+00  0.00000000E+00  0.00000000E+00
                       1.25000000E-01  0.00000000E+00  0.00000000E+00
                       2.50000000E-01  0.00000000E+00  0.00000000E+00
                       3.75000000E-01  0.00000000E+00  0.00000000E+00
                       5.00000000E-01  0.00000000E+00  0.00000000E+00
                      -3.75000000E-01  0.00000000E+00  0.00000000E+00
                      -2.50000000E-01  0.00000000E+00  0.00000000E+00
                      -1.25000000E-01  0.00000000E+00  0.00000000E+00
                       0.00000000E+00  1.25000000E-01  0.00000000E+00
                       1.25000000E-01  1.25000000E-01  0.00000000E+00
                       2.50000000E-01  1.25000000E-01  0.00000000E+00
                       3.75000000E-01  1.25000000E-01  0.00000000E+00
                       5.00000000E-01  1.25000000E-01  0.00000000E+00
                      -3.75000000E-01  1.25000000E-01  0.00000000E+00
                      -2.50000000E-01  1.25000000E-01  0.00000000E+00
                      -1.25000000E-01  1.25000000E-01  0.00000000E+00
                       0.00000000E+00  2.50000000E-01  0.00000000E+00
                       1.25000000E-01  2.50000000E-01  0.00000000E+00
                       2.50000000E-01  2.50000000E-01  0.00000000E+00
                       3.75000000E-01  2.50000000E-01  0.00000000E+00
                       5.00000000E-01  2.50000000E-01  0.00000000E+00
                      -3.75000000E-01  2.50000000E-01  0.00000000E+00
                      -2.50000000E-01  2.50000000E-01  0.00000000E+00
                      -1.25000000E-01  2.50000000E-01  0.00000000E+00
                       0.00000000E+00  3.75000000E-01  0.00000000E+00
                       1.25000000E-01  3.75000000E-01  0.00000000E+00
                       2.50000000E-01  3.75000000E-01  0.00000000E+00
                       3.75000000E-01  3.75000000E-01  0.00000000E+00
                       5.00000000E-01  3.75000000E-01  0.00000000E+00
                      -3.75000000E-01  3.75000000E-01  0.00000000E+00
                      -2.50000000E-01  3.75000000E-01  0.00000000E+00
                      -1.25000000E-01  3.75000000E-01  0.00000000E+00
                       0.00000000E+00  5.00000000E-01  0.00000000E+00
                       1.25000000E-01  5.00000000E-01  0.00000000E+00
                       2.50000000E-01  5.00000000E-01  0.00000000E+00
                       3.75000000E-01  5.00000000E-01  0.00000000E+00
                       5.00000000E-01  5.00000000E-01  0.00000000E+00
                      -3.75000000E-01  5.00000000E-01  0.00000000E+00
                      -2.50000000E-01  5.00000000E-01  0.00000000E+00
                      -1.25000000E-01  5.00000000E-01  0.00000000E+00
                       0.00000000E+00 -3.75000000E-01  0.00000000E+00
                       1.25000000E-01 -3.75000000E-01  0.00000000E+00
                       2.50000000E-01 -3.75000000E-01  0.00000000E+00
                       3.75000000E-01 -3.75000000E-01  0.00000000E+00
                       5.00000000E-01 -3.75000000E-01  0.00000000E+00
                      -3.75000000E-01 -3.75000000E-01  0.00000000E+00
                      -2.50000000E-01 -3.75000000E-01  0.00000000E+00
                      -1.25000000E-01 -3.75000000E-01  0.00000000E+00
                       0.00000000E+00 -2.50000000E-01  0.00000000E+00
                       1.25000000E-01 -2.50000000E-01  0.00000000E+00
                       outvar_i_n : Printing only first  50 k-points.
           kptopt           3
         kptrlatt        8    0    0      0    8    0      0    0    8
          kptrlen      3.81894230E+01
P           mkmem         128
P          mkqmem         128
P          mk1mem         128
            natom           2
            nband           8
           ndtset           3
            ngfft          30      30      30
             nkpt         512
             nqpt           1
            nstep         100
             nsym          48
           ntypat           1
              occ      2.000000  2.000000  2.000000  2.000000  0.000000  0.000000
                       0.000000  0.000000
        optdriver           1
           prteig           0
           prtpot           1
            prtwf           0
              qpt1     0.00000000E+00  0.00000000E+00  0.00000000E+00
              qpt2     5.00000000E-01  0.00000000E+00  0.00000000E+00
              qpt3     5.00000000E-01  5.00000000E-01  0.00000000E+00
           rfphon           1
            rprim      0.0000000000E+00  5.0000000000E-01  5.0000000000E-01
                       5.0000000000E-01  0.0000000000E+00  5.0000000000E-01
                       5.0000000000E-01  5.0000000000E-01  0.0000000000E+00
          spgroup         227
           strten1     0.0000000000E+00  0.0000000000E+00  0.0000000000E+00
                       0.0000000000E+00  0.0000000000E+00  0.0000000000E+00
           strten2     0.0000000000E+00  0.0000000000E+00  0.0000000000E+00
                       0.0000000000E+00  0.0000000000E+00  0.0000000000E+00
           strten3     0.0000000000E+00  0.0000000000E+00  0.0000000000E+00
                       0.0000000000E+00  0.0000000000E+00  0.0000000000E+00
           symrel      1  0  0   0  1  0   0  0  1      -1  0  0   0 -1  0   0  0 -1
                       0 -1  1   0 -1  0   1 -1  0       0  1 -1   0  1  0  -1  1  0
                      -1  0  0  -1  0  1  -1  1  0       1  0  0   1  0 -1   1 -1  0
                       0  1 -1   1  0 -1   0  0 -1       0 -1  1  -1  0  1   0  0  1
                      -1  0  0  -1  1  0  -1  0  1       1  0  0   1 -1  0   1  0 -1
                       0 -1  1   1 -1  0   0 -1  0       0  1 -1  -1  1  0   0  1  0
                       1  0  0   0  0  1   0  1  0      -1  0  0   0  0 -1   0 -1  0
                       0  1 -1   0  0 -1   1  0 -1       0 -1  1   0  0  1  -1  0  1
                      -1  0  1  -1  1  0  -1  0  0       1  0 -1   1 -1  0   1  0  0
                       0 -1  0   1 -1  0   0 -1  1       0  1  0  -1  1  0   0  1 -1
                       1  0 -1   0  0 -1   0  1 -1      -1  0  1   0  0  1   0 -1  1
                       0  1  0   0  0  1   1  0  0       0 -1  0   0  0 -1  -1  0  0
                       1  0 -1   0  1 -1   0  0 -1      -1  0  1   0 -1  1   0  0  1
                       0 -1  0   0 -1  1   1 -1  0       0  1  0   0  1 -1  -1  1  0
                      -1  0  1  -1  0  0  -1  1  0       1  0 -1   1  0  0   1 -1  0
                       0  1  0   1  0  0   0  0  1       0 -1  0  -1  0  0   0  0 -1
                       0  0 -1   0  1 -1   1  0 -1       0  0  1   0 -1  1  -1  0  1
                       1 -1  0   0 -1  1   0 -1  0      -1  1  0   0  1 -1   0  1  0
                       0  0  1   1  0  0   0  1  0       0  0 -1  -1  0  0   0 -1  0
                      -1  1  0  -1  0  0  -1  0  1       1 -1  0   1  0  0   1  0 -1
                       0  0  1   0  1  0   1  0  0       0  0 -1   0 -1  0  -1  0  0
                       1 -1  0   0 -1  0   0 -1  1      -1  1  0   0  1  0   0  1 -1
                       0  0 -1   1  0 -1   0  1 -1       0  0  1  -1  0  1   0 -1  1
                      -1  1  0  -1  0  1  -1  0  0       1 -1  0   1  0 -1   1  0  0
            tnons      0.0000000  0.0000000  0.0000000     0.2500000  0.2500000  0.2500000
                       0.0000000  0.0000000  0.0000000     0.2500000  0.2500000  0.2500000
                       0.0000000  0.0000000  0.0000000     0.2500000  0.2500000  0.2500000
                       0.0000000  0.0000000  0.0000000     0.2500000  0.2500000  0.2500000
                       0.0000000  0.0000000  0.0000000     0.2500000  0.2500000  0.2500000
                       0.0000000  0.0000000  0.0000000     0.2500000  0.2500000  0.2500000
                       0.0000000  0.0000000  0.0000000     0.2500000  0.2500000  0.2500000
                       0.0000000  0.0000000  0.0000000     0.2500000  0.2500000  0.2500000
                       0.0000000  0.0000000  0.0000000     0.2500000  0.2500000  0.2500000
                       0.0000000  0.0000000  0.0000000     0.2500000  0.2500000  0.2500000
                       0.0000000  0.0000000  0.0000000     0.2500000  0.2500000  0.2500000
                       0.0000000  0.0000000  0.0000000     0.2500000  0.2500000  0.2500000
                       0.0000000  0.0000000  0.0000000     0.2500000  0.2500000  0.2500000
                       0.0000000  0.0000000  0.0000000     0.2500000  0.2500000  0.2500000
                       0.0000000  0.0000000  0.0000000     0.2500000  0.2500000  0.2500000
                       0.0000000  0.0000000  0.0000000     0.2500000  0.2500000  0.2500000
                       0.0000000  0.0000000  0.0000000     0.2500000  0.2500000  0.2500000
                       0.0000000  0.0000000  0.0000000     0.2500000  0.2500000  0.2500000
                       0.0000000  0.0000000  0.0000000     0.2500000  0.2500000  0.2500000
                       0.0000000  0.0000000  0.0000000     0.2500000  0.2500000  0.2500000
                       0.0000000  0.0000000  0.0000000     0.2500000  0.2500000  0.2500000
                       0.0000000  0.0000000  0.0000000     0.2500000  0.2500000  0.2500000
                       0.0000000  0.0000000  0.0000000     0.2500000  0.2500000  0.2500000
                       0.0000000  0.0000000  0.0000000     0.2500000  0.2500000  0.2500000
           tolvrs      1.00000000E-18
            typat      1  1
              wtk        0.00195    0.00195    0.00195    0.00195    0.00195    0.00195
                         0.00195    0.00195    0.00195    0.00195    0.00195    0.00195
                         0.00195    0.00195    0.00195    0.00195    0.00195    0.00195
                         0.00195    0.00195    0.00195    0.00195    0.00195    0.00195
                         0.00195    0.00195    0.00195    0.00195    0.00195    0.00195
                         0.00195    0.00195    0.00195    0.00195    0.00195    0.00195
                         0.00195    0.00195    0.00195    0.00195    0.00195    0.00195
                         0.00195    0.00195    0.00195    0.00195    0.00195    0.00195
                         0.00195    0.00195
                       outvars : Printing only first  50 k-points.
           xangst      0.0000000000E+00  0.0000000000E+00  0.0000000000E+00
                       8.9311883380E-01  8.9311883380E-01  8.9311883380E-01
            xcart      0.0000000000E+00  0.0000000000E+00  0.0000000000E+00
                       1.6877500000E+00  1.6877500000E+00  1.6877500000E+00
             xred      0.0000000000E+00  0.0000000000E+00  0.0000000000E+00
                       2.5000000000E-01  2.5000000000E-01  2.5000000000E-01
            znucl        6.00000

================================================================================

 symlatt: the Bravais lattice is cF (face-centered cubic)
 symspgr: spgroup= 227  Fd -3 m   (=Oh^7)
 symspgr: optical characteristics = isotropic
 DATASET    1 : space group Fd -3 m (#227); Bravais cF (face-center cubic)

 symlatt: the Bravais lattice is cF (face-centered cubic)
 symspgr: spgroup= 227  Fd -3 m   (=Oh^7)
 symspgr: optical characteristics = isotropic
 DATASET    2 : space group Fd -3 m (#227); Bravais cF (face-center cubic)

 symlatt: the Bravais lattice is cF (face-centered cubic)
 symspgr: spgroup= 227  Fd -3 m   (=Oh^7)
 symspgr: optical characteristics = isotropic
 DATASET    3 : space group Fd -3 m (#227); Bravais cF (face-center cubic)

================================================================================
  
 Proc.   0 individual time (sec): cpu=         95.3  wall=         95.5

 Calculation completed.
.Delivered   0 WARNINGs and   0 COMMENTs to log file.

--- !FinalSummary
program: abinit
version: 10.3.4.3
start_datetime: Thu Jan 23 10:42:26 2025
end_datetime: Thu Jan 23 10:44:01 2025
overall_cpu_time:         381.4
overall_wall_time:         381.9
exit_requested_by_user: no 
timelimit: 0
pseudos: 
    C   : 8af239e6261c16367070328997070877
usepaw: 0
mpi_procs: 4
omp_threads: 1
num_warnings: 0
num_comments: 0
...
- [ALL OK] MEMORY CONSUMPTION REPORT FOR C CODE:
-   There were 144 allocations and 144 deallocations in C code
- [ALL OK] MEMORY CONSUMPTION REPORT FOR FORTRAN CODE:
-   There were 9953452 allocations and 9953452 deallocations in Fortran
-   Remaining memory at the end of the calculation is 0
