  ABINIT 10.5.1.4
  
-instrng: 34 lines of input have been read from file gw.abi


.Version 10.5.1.4 of ABINIT, released May 2025.
.(MPI version, prepared for a x86_64_linux_gnu11.4 computer) 

.Copyright (C) 1998-2025 ABINIT group . 
 ABINIT comes with ABSOLUTELY NO WARRANTY.
 It is free software, and you are welcome to redistribute it
 under certain conditions (GNU General Public License,
 see ~abinit/COPYING or http://www.gnu.org/copyleft/gpl.txt).

 ABINIT is a project of the Universite Catholique de Louvain,
 Corning Inc. and other collaborators, see ~abinit/doc/developers/contributors.txt .
 Please read https://docs.abinit.org/theory/acknowledgments for suggested
 acknowledgments of the ABINIT effort.
 For more information, see https://www.abinit.org .

.Starting date : Wed 25 Jun 2025.
- ( at 22h23 )
  

 ++++++++++++++++++++++++++++++++++++++++++++++++++++++++++++++++++++++++++++++

 === Build Information === 
  Version       : 10.5.1.4
  Build target  : x86_64_linux_gnu11.4
  Build date    : 20250625

 === Compiler Suite === 
  C compiler       : gnu11.4
  C++ compiler     : gnu11.4
  Fortran compiler : gnu11.4
  CFLAGS           : -g -O2 -march=native
  CXXFLAGS         : -g -O2 -march=native
  FCFLAGS          : -g -ffree-line-length-none -fallow-argument-mismatch      -I/home/siyu/local/include  -I/home/siyu/local/include
  FC_LDFLAGS       : 

 === Optimizations === 
  Debug level        : basic
  Optimization level : standard
  Architecture       : unknown_unknown

 === Multicore === 
  Parallel build : 
  Parallel I/O   : 
  openMP support : 
  GPU support    : @with_gpu@

 === Connectors / Fallbacks === 
  LINALG flavor  : mkl
  FFT flavor     : dfti
  HDF5           : yes
  NetCDF         : yes
  NetCDF Fortran : yes
  LibXC          : yes
  Wannier90      : no

 === Experimental features === 
  Exports             : @enable_exports@
  GW double-precision : 

 ++++++++++++++++++++++++++++++++++++++++++++++++++++++++++++++++++++++++++++++


 ++++++++++++++++++++++++++++++++++++++++++++++++++++++++++++++++++++++++++++++
 Default optimizations:
   -O2 -march=native


 Optimizations for 43_ptgroups:
   -O0


 ++++++++++++++++++++++++++++++++++++++++++++++++++++++++++++++++++++++++++++++


 ++++++++++++++++++++++++++++++++++++++++++++++++++++++++++++++++++++++++++++++
 CPP options activated during the build:

                    CC_GNU                   CXX_GNU                    FC_GNU
 
                 HAVE_DFTI HAVE_FC_ALLOCATABLE_DT...             HAVE_FC_ASYNC
 
         HAVE_FC_BACKTRACE  HAVE_FC_COMMAND_ARGUMENT      HAVE_FC_COMMAND_LINE
 
        HAVE_FC_CONTIGUOUS           HAVE_FC_CPUTIME              HAVE_FC_EXIT
 
             HAVE_FC_FLUSH             HAVE_FC_GAMMA            HAVE_FC_GETENV
 
   HAVE_FC_IEEE_ARITHMETIC   HAVE_FC_IEEE_EXCEPTIONS          HAVE_FC_INT_QUAD
 
             HAVE_FC_IOMSG     HAVE_FC_ISO_C_BINDING  HAVE_FC_ISO_FORTRAN_2008
 
        HAVE_FC_LONG_LINES        HAVE_FC_MOVE_ALLOC  HAVE_FC_ON_THE_FLY_SHAPE
 
           HAVE_FC_PRIVATE         HAVE_FC_PROTECTED           HAVE_FC_SHIFTLR
 
         HAVE_FC_STREAM_IO            HAVE_FC_SYSTEM          HAVE_FORTRAN2003
 
                 HAVE_HDF5             HAVE_HDF5_MPI        HAVE_LIBPAW_ABINIT
 
      HAVE_LIBTETRA_ABINIT                HAVE_LIBXC         HAVE_LINALG_AXPBY
 
        HAVE_LINALG_GEMM3M         HAVE_LINALG_GEMMT  HAVE_LINALG_MKL_IMATCOPY
 
   HAVE_LINALG_MKL_OMATADD  HAVE_LINALG_MKL_OMATCOPY   HAVE_LINALG_MKL_THREADS
 
     HAVE_LINALG_SCALAPACK                  HAVE_MPI                 HAVE_MPI2
 
         HAVE_MPI2_INPLACE HAVE_MPI_ALLOCATE_SHAR...       HAVE_MPI_IALLGATHER
 
       HAVE_MPI_IALLREDUCE        HAVE_MPI_IALLTOALL       HAVE_MPI_IALLTOALLV
 
           HAVE_MPI_IBCAST         HAVE_MPI_IGATHERV        HAVE_MPI_INTEGER16
 
               HAVE_MPI_IO HAVE_MPI_TYPE_CREATE_S...               HAVE_NETCDF
 
       HAVE_NETCDF_FORTRAN   HAVE_NETCDF_FORTRAN_MPI           HAVE_NETCDF_MPI
 
             HAVE_OS_LINUX         HAVE_TIMER_ABINIT                            
 ++++++++++++++++++++++++++++++++++++++++++++++++++++++++++++++++++++++++++++++

- input  file    -> gw.abi
- output file    -> gw.abo
- root for input  files -> gwi
- root for output files -> gwo

 abinit : after writing the name of files
 Netcdf library supports MPI-IO
-instrng: 34 lines of input have been read from file gw.abi

 For atom type 1, psp file is C.psp8
  read the values zionpsp=  4.0 , pspcod=   8 , lmax=   1

 inpspheads: deduce mpsang = 2, n1xccc = 2501.

======================================================= 
 invars1m : enter jdtset= 1
 Initializing lattice and positions from: abifile:gso_DEN.nc
  xred   is defined in input file
 ingeo: takes atomic coordinates from input array xred

--- !COMMENT
src_file: m_symfind.F90
src_line: 758
message: |
    The tolerance on symmetries =   1.000E-05 is bigger than 1.0e-8.
    In order to avoid spurious effects, the atomic coordinates have been
    symmetrized before storing them in the dataset internal variable.
    So, do not be surprised by the fact that your input variables (xcart, xred, ...)
    do not correspond exactly to the ones echoed by ABINIT, the latter being used to do the calculations.
    This is not a problem per se.
    Still, in order to avoid this symmetrization (e.g. for specific debugging/development), decrease tolsym to 1.0e-8 or lower,
    or (much preferred) use input primitive vectors that are accurate to better than 1.0e-8.
    This message will only be printed once, even if there are other datasets where tolsym is bigger than 1.0e-8.
...


 symlatt: the Bravais lattice is cF (face-centered cubic)
 symspgr: spgroup= 227  Fd -3 m   (=Oh^7)
 symspgr: optical characteristics = isotropic

======================================================= 
 invars1m : enter jdtset= 2
 Initializing lattice and positions from: abifile:gso_DEN.nc
  xred   is defined in input file
 ingeo: takes atomic coordinates from input array xred

 symlatt: the Bravais lattice is cF (face-centered cubic)
 symspgr: spgroup= 227  Fd -3 m   (=Oh^7)
 symspgr: optical characteristics = isotropic

--- !COMMENT
src_file: m_gsphere.F90
src_line: 1561
message: |
    One of the three variables ecutsigx, npwsigx, or nshsigx
    must be non-null. Returning.
...


--- !WARNING
src_file: m_mpinfo.F90
src_line: 2309
message: |
    nproc_spkpt= 4 >= nkpt= 3* nsppol= 1
    The number of processors is larger than nkpt*nsppol. This is a WASTE.
     Ignore this warning if this is not a GS run
...


--- !WARNING
src_file: m_mpi_setup.F90
src_line: 832
message: |
    Your number of spins*k-points (=3) will not distribute correctly
    with the current number of processors (=4).
    You will leave some empty.
    YOU ARE STRONGLY ADVISED TO ACTIVATE AUTOMATIC PARALLELIZATION!
    USE "AUTOPARAL=1" IN THE INPUT FILE.
...

 For input ecut=  4.500000E+01 best grid ngfft=      30      30      30
       max ecut=  4.883263E+01

 ==== FFT mesh ====
  FFT mesh divisions ........................    30   30   30
  Augmented FFT divisions ...................    31   31   30
  FFT algorithm .............................   512
  FFT cache size ............................    16
 getmpw: optimal value of mpw= 553

--- !WARNING
src_file: m_mpinfo.F90
src_line: 2309
message: |
    nproc_spkpt= 4 >= nkpt= 3* nsppol= 1
    The number of processors is larger than nkpt*nsppol. This is a WASTE.
     Ignore this warning if this is not a GS run
...

 For input ecut=  4.500000E+01 best grid ngfft=      30      30      30
       max ecut=  4.883263E+01

 ==== FFT mesh ====
  FFT mesh divisions ........................    30   30   30
  Augmented FFT divisions ...................    31   31   30
  FFT algorithm .............................   512
  FFT cache size ............................    16
 getmpw: optimal value of mpw= 553
 DATASET    1 : space group Fd -3 m (#227); Bravais cF (face-center cubic)

 getdim_nloc: deduce lmnmax  =   8, lnmax  =   4,
                      lmnmaxso=   8, lnmaxso=   4.
memory: analysis of memory needs
================================================================================
 Values of the parameters that define the memory need for DATASET  1.
     intxc =       0    ionmov =       0      iscf =      -2    lmnmax =       4
     lnmax =       4     mgfft =      30  mpssoang =       2    mqgrid =    3001
     natom =       2  nloc_mem =       1    nspden =       1   nspinor =       1
    nsppol =       1      nsym =      48    n1xccc =    2501    ntypat =       1
    occopt =       1   xclevel =       2
-    mband =          70        mffmem =           1         mkmem =           1
       mpw =         553          nfft =       27000          nkpt =           3
================================================================================
P This job should need less than                       6.481 Mbytes of memory.
  Rough estimation (10% accuracy) of disk space for files :
_ WF disk file :      1.774 Mbytes ; DEN or POT disk file :      0.208 Mbytes.
================================================================================

 Biggest array : cg(disk), with      0.5927 MBytes.
 memana : allocated an array of      0.593 Mbytes, for testing purposes.
 memana: allocated       6.481Mbytes, for testing purposes. 
 The job will continue.
 DATASET    2 : space group Fd -3 m (#227); Bravais cF (face-center cubic)

 getdim_nloc: deduce lmnmax  =   8, lnmax  =   4,
                      lmnmaxso=   8, lnmaxso=   4.
memory: analysis of memory needs
================================================================================
 Values of the parameters that define the memory need for DATASET  2.
     intxc =       0    ionmov =       0      iscf =      -2    lmnmax =       4
     lnmax =       4     mgfft =      30  mpssoang =       2    mqgrid =    3001
     natom =       2  nloc_mem =       1    nspden =       1   nspinor =       1
    nsppol =       1      nsym =      48    n1xccc =    2501    ntypat =       1
    occopt =       1   xclevel =       2
-    mband =          60        mffmem =           1         mkmem =           1
       mpw =         553          nfft =       27000          nkpt =           3
================================================================================
P This job should need less than                       6.360 Mbytes of memory.
  Rough estimation (10% accuracy) of disk space for files :
_ WF disk file :      1.521 Mbytes ; DEN or POT disk file :      0.208 Mbytes.
================================================================================

 Biggest array : cg(disk), with      0.5083 MBytes.
--------------------------------------------------------------------------------
------------- Echo of variables that govern the present computation ------------
--------------------------------------------------------------------------------
-
- outvars: echo of selected default values
-   iomode0 =  0 , fftalg0 =512 , wfoptalg0 =  0
-
- outvars: echo of global parameters not present in the input file
-  max_nthreads =    0
-
 -outvars: echo values of preprocessed input variables --------
 
 These variables are accessible in NetCDF format (gwo_OUT.nc)

-          iomode           3
            acell      1.0000000000E+00  1.0000000000E+00  1.0000000000E+00 Bohr
              amu      1.20110000E+01
             ecut      4.50000000E+01 Hartree
          ecuteps1     0.00000000E+00 Hartree
          ecuteps2     2.00000000E+00 Hartree
          ecutwfn1     0.00000000E+00 Hartree
          ecutwfn2     4.50000000E+01 Hartree
-          fftalg         512
           getwfk          -1
             iscf          -2
           istwfk        2    3    7
              ixc          11
           jdtset        1    2
              kpt      0.00000000E+00  0.00000000E+00  0.00000000E+00
                       5.00000000E-01  0.00000000E+00  0.00000000E+00
                       5.00000000E-01  5.00000000E-01  0.00000000E+00
         kptrlatt        2    0    0      0    2    0      0    0    2
          kptrlen      9.54735576E+00
P           mkmem           1
            natom           2
            nband1         70
            nband2         60
           nbdbuf1          7
           nbdbuf2          6
           ndtset           2
            ngfft          30      30      30
             nkpt           3
           npweps1          0
           npweps2         15
           npwwfn1          0
           npwwfn2       1067
            nstep         150
             nsym          48
           ntypat           1
        optdriver1          0
        optdriver2          3
          ppmodel1          1
          ppmodel2          4
            rprim      0.0000000000E+00  3.3755000000E+00  3.3755000000E+00
                       3.3755000000E+00  0.0000000000E+00  3.3755000000E+00
                       3.3755000000E+00  3.3755000000E+00  0.0000000000E+00
          spgroup         227
           symrel      1  0  0   0  1  0   0  0  1      -1  0  0   0 -1  0   0  0 -1
                       0 -1  1   0 -1  0   1 -1  0       0  1 -1   0  1  0  -1  1  0
                      -1  0  0  -1  0  1  -1  1  0       1  0  0   1  0 -1   1 -1  0
                       0  1 -1   1  0 -1   0  0 -1       0 -1  1  -1  0  1   0  0  1
                      -1  0  0  -1  1  0  -1  0  1       1  0  0   1 -1  0   1  0 -1
                       0 -1  1   1 -1  0   0 -1  0       0  1 -1  -1  1  0   0  1  0
                       1  0  0   0  0  1   0  1  0      -1  0  0   0  0 -1   0 -1  0
                       0  1 -1   0  0 -1   1  0 -1       0 -1  1   0  0  1  -1  0  1
                      -1  0  1  -1  1  0  -1  0  0       1  0 -1   1 -1  0   1  0  0
                       0 -1  0   1 -1  0   0 -1  1       0  1  0  -1  1  0   0  1 -1
                       1  0 -1   0  0 -1   0  1 -1      -1  0  1   0  0  1   0 -1  1
                       0  1  0   0  0  1   1  0  0       0 -1  0   0  0 -1  -1  0  0
                       1  0 -1   0  1 -1   0  0 -1      -1  0  1   0 -1  1   0  0  1
                       0 -1  0   0 -1  1   1 -1  0       0  1  0   0  1 -1  -1  1  0
                      -1  0  1  -1  0  0  -1  1  0       1  0 -1   1  0  0   1 -1  0
                       0  1  0   1  0  0   0  0  1       0 -1  0  -1  0  0   0  0 -1
                       0  0 -1   0  1 -1   1  0 -1       0  0  1   0 -1  1  -1  0  1
                       1 -1  0   0 -1  1   0 -1  0      -1  1  0   0  1 -1   0  1  0
                       0  0  1   1  0  0   0  1  0       0  0 -1  -1  0  0   0 -1  0
                      -1  1  0  -1  0  0  -1  0  1       1 -1  0   1  0  0   1  0 -1
                       0  0  1   0  1  0   1  0  0       0  0 -1   0 -1  0  -1  0  0
                       1 -1  0   0 -1  0   0 -1  1      -1  1  0   0  1  0   0  1 -1
                       0  0 -1   1  0 -1   0  1 -1       0  0  1  -1  0  1   0 -1  1
                      -1  1  0  -1  0  1  -1  0  0       1 -1  0   1  0 -1   1  0  0
            tnons      0.0000000  0.0000000  0.0000000     0.2500000  0.2500000  0.2500000
                       0.0000000  0.0000000  0.0000000     0.2500000  0.2500000  0.2500000
                       0.0000000  0.0000000  0.0000000     0.2500000  0.2500000  0.2500000
                       0.0000000  0.0000000  0.0000000     0.2500000  0.2500000  0.2500000
                       0.0000000  0.0000000  0.0000000     0.2500000  0.2500000  0.2500000
                       0.0000000  0.0000000  0.0000000     0.2500000  0.2500000  0.2500000
                       0.0000000  0.0000000  0.0000000     0.2500000  0.2500000  0.2500000
                       0.0000000  0.0000000  0.0000000     0.2500000  0.2500000  0.2500000
                       0.0000000  0.0000000  0.0000000     0.2500000  0.2500000  0.2500000
                       0.0000000  0.0000000  0.0000000     0.2500000  0.2500000  0.2500000
                       0.0000000  0.0000000  0.0000000     0.2500000  0.2500000  0.2500000
                       0.0000000  0.0000000  0.0000000     0.2500000  0.2500000  0.2500000
                       0.0000000  0.0000000  0.0000000     0.2500000  0.2500000  0.2500000
                       0.0000000  0.0000000  0.0000000     0.2500000  0.2500000  0.2500000
                       0.0000000  0.0000000  0.0000000     0.2500000  0.2500000  0.2500000
                       0.0000000  0.0000000  0.0000000     0.2500000  0.2500000  0.2500000
                       0.0000000  0.0000000  0.0000000     0.2500000  0.2500000  0.2500000
                       0.0000000  0.0000000  0.0000000     0.2500000  0.2500000  0.2500000
                       0.0000000  0.0000000  0.0000000     0.2500000  0.2500000  0.2500000
                       0.0000000  0.0000000  0.0000000     0.2500000  0.2500000  0.2500000
                       0.0000000  0.0000000  0.0000000     0.2500000  0.2500000  0.2500000
                       0.0000000  0.0000000  0.0000000     0.2500000  0.2500000  0.2500000
                       0.0000000  0.0000000  0.0000000     0.2500000  0.2500000  0.2500000
                       0.0000000  0.0000000  0.0000000     0.2500000  0.2500000  0.2500000
           tolwfr      1.00000000E-14
            typat      1  1
              wtk        0.12500    0.50000    0.37500
           xangst      0.0000000000E+00  0.0000000000E+00  0.0000000000E+00
                       8.9311883380E-01  8.9311883380E-01  8.9311883380E-01
            xcart      0.0000000000E+00  0.0000000000E+00  0.0000000000E+00
                       1.6877500000E+00  1.6877500000E+00  1.6877500000E+00
             xred      0.0000000000E+00  0.0000000000E+00  0.0000000000E+00
                       2.5000000000E-01  2.5000000000E-01  2.5000000000E-01
            znucl        6.00000

================================================================================

 chkinp: Checking input parameters for consistency, jdtset=   1.

 chkinp: Checking input parameters for consistency, jdtset=   2.
 DATA TYPE INFORMATION: 
 REAL:      Data type name: REAL(DP) 
            Kind value:      8
            Precision:      15
            Smallest nonnegligible quantity relative to 1:  0.22204460E-015
            Smallest positive number:                       0.22250739E-307
            Largest representable number:                   0.17976931E+309
 INTEGER:   Data type name: INTEGER(default) 
            Kind value: 4
            Bit size:   32
            Largest representable number: 2147483647
 LOGICAL:   Data type name: LOGICAL 
            Kind value: 4
 CHARACTER: Data type name: CHARACTER             Kind value: 1

  ==== OpenMP parallelism is OFF ====
 
  ==== Using MPI-2 specifications ==== 
  MPI-IO support is ON
  xmpi_tag_ub ................   2147483647
  xmpi_bsize_ch ..............            1
  xmpi_bsize_int .............            4
  xmpi_bsize_sp ..............            4
  xmpi_bsize_dp ..............            8
  xmpi_bsize_spc .............            8
  xmpi_bsize_dpc .............           16
  xmpio_bsize_frm ............            4
  xmpi_address_kind ..........            8
  xmpi_offset_kind ...........            8
  MPI_WTICK ..................    1.0000000000000001E-007

================================================================================
== DATASET  1 ==================================================================
-   mpi_nproc: 4, omp_nthreads: -1 (-1 if OMP is not activated)
-    --> not optimal distribution: autoparal keyword recommended in input file <--


--- !COMMENT
src_file: m_xgScalapack.F90
src_line: 238
message: |
    xgScalapack in auto mode
...

 mkfilename: getden from: gso_DEN.nc


 getdim_nloc: deduce lmnmax  =   8, lnmax  =   4,
                      lmnmaxso=   8, lnmaxso=   4.
 Exchange-correlation functional for the present dataset will be:
  GGA: Perdew-Burke-Ernzerhof functional - ixc=11
 Citation for XC functional:
  J.P.Perdew, K.Burke, M.Ernzerhof, PRL 77, 3865 (1996)


--- !PstatData
iteration_state: {dtset: 1, }
pid: 21579
file: m_driver.F90
line: 755
vmrss_mb:   4.00156250E+01
min_mpicomm_vmrss_mb:   4.00156250E+01
max_mpicomm_vmrss_mb:   4.00156250E+01
vmpeak_mb:   0.00000000E+00
vmstk_mb:   0.00000000E+00
...

 Unit cell volume ucvol=  7.6920896E+01 bohr^3
 Angles (23,13,12)=  6.00000000E+01  6.00000000E+01  6.00000000E+01 degrees

 getcut: wavevector=  0.0000  0.0000  0.0000  ngfft=  30  30  30
         ecut(hartree)=     45.000   => boxcut(ratio)=   2.08343
- pspini: atom type   1  psp file is C.psp8
- pspatm: opening atomic psp file    C.psp8
- C     ONCVPSP-3.2.3.1  r_core=   1.20440   1.26326
-  6.00000   4.00000    170503                znucl, zion, pspdat
    8   11    1    4       600   0.00000      pspcod,pspxc,lmax,lloc,mmax,r2well
    5.99000000000000    4.00000000000000    0.00000000000000   rchrg,fchrg,qchrg
     nproj     2     2
     extension_switch     1
  valence charge (before rescaling) integrates to:    3.9929454843644803     
  pspatm : epsatm=    4.31347020
         --- l  ekb(1:nproj) -->
             0    6.481548    0.385504
             1   -4.199961   -0.877517
 pspatm: atomic psp has been read  and splines computed

   6.90155232E+01                                ecore*ucvol(ha*bohr**3)
 ==== Info on pseudopotentials ====
  Norm-conserving pseudopotentials
  Number of pseudopotentials ..    1
  Number of types of atoms   ..    1
  Scalar calculation (no spin-orbit term)
  Nonlocal part applied using Legendre polynomials
  Max number of non-local projectors over l and type   2
  Highest angular momentum +1 .......   2
  Max number of (l,n)   components ..   4
  Max number of (l,m,n) components ..   4

 Pseudo-Core Charge Info: 
   Number of radial points for pseudo-core charge .. 2501
   XC core-correction treatment (optnlxccc) ........    1
   Radius for pseudo-core charge for each type ..... 

  - Atom type    1 has pseudo-core radius ..       5.9900

 Info on the Q-grid used for form factors in spline form: 
   Number of q-points for radial functions ffspl ..   3001
   Number of q-points for vlspl ...................   3001
   vloc is computed in Reciprocal Space
   model core charge treated in real-space

  XC functional for type 1 is 11
  Pseudo valence available: yes

 symatm: atom number 1 is reached starting at atom
   1  2  1  2  1  2  1  2  1  2  1  2  1  2  1  2  1  2  1  2  1  2  1  2
   1  2  1  2  1  2  1  2  1  2  1  2  1  2  1  2  1  2  1  2  1  2  1  2
 symatm: atom number 2 is reached starting at atom
   2  1  2  1  2  1  2  1  2  1  2  1  2  1  2  1  2  1  2  1  2  1  2  1
   2  1  2  1  2  1  2  1  2  1  2  1  2  1  2  1  2  1  2  1  2  1  2  1
 wfconv:    70 bands initialized randomly with npw=   534, for ikpt=     1
 About to read data(r) from: gso_DEN.nc

================================================================================

          - hdr_check: checking restart file header for consistency -


          current calculation                           restart file
          -------------------                           ------------

  calculation expects a density             |  input file contains a density
. ABINIT  code version 10.5.1.4             |  ABINIT  code version 10.5.1.4
. date 20250625 bantot      210 natom    2  |  date 20250625 bantot      232 natom    2
  nkpt       3 nsym 48 ngfft  30,  30,  30  |  nkpt      29 nsym 48 ngfft  30,  30,  30
  ntypat  1 ecut_eff  45.0000000            |  ntypat  1 ecut_eff  45.0000000
  usepaw  0                                 |  usepaw  0
  usewvl  0                                 |  usewvl  0
  rprimd:                                   |  rprimd:
     0.0000000   3.3755000   3.3755000      |     0.0000000   3.3755000   3.3755000
     3.3755000   0.0000000   3.3755000      |     3.3755000   0.0000000   3.3755000
     3.3755000   3.3755000   0.0000000      |     3.3755000   3.3755000   0.0000000
  symafm:                                   |  symafm:
    1  1  1  1  1  1  1  1  1  1  1  1      |    1  1  1  1  1  1  1  1  1  1  1  1
    1  1  1  1  1  1  1  1  1  1  1  1      |    1  1  1  1  1  1  1  1  1  1  1  1
    1  1  1  1  1  1  1  1  1  1  1  1      |    1  1  1  1  1  1  1  1  1  1  1  1
    1  1  1  1  1  1  1  1  1  1  1  1      |    1  1  1  1  1  1  1  1  1  1  1  1
  symrel:                                   |  symrel:
    1  0  0  0  1  0  0  0  1               |    1  0  0  0  1  0  0  0  1
   -1  0  0  0 -1  0  0  0 -1               |   -1  0  0  0 -1  0  0  0 -1
    0 -1  1  0 -1  0  1 -1  0               |    0 -1  1  0 -1  0  1 -1  0
    0  1 -1  0  1  0 -1  1  0               |    0  1 -1  0  1  0 -1  1  0
   -1  0  0 -1  0  1 -1  1  0               |   -1  0  0 -1  0  1 -1  1  0
    1  0  0  1  0 -1  1 -1  0               |    1  0  0  1  0 -1  1 -1  0
    0  1 -1  1  0 -1  0  0 -1               |    0  1 -1  1  0 -1  0  0 -1
    0 -1  1 -1  0  1  0  0  1               |    0 -1  1 -1  0  1  0  0  1
   -1  0  0 -1  1  0 -1  0  1               |   -1  0  0 -1  1  0 -1  0  1
    1  0  0  1 -1  0  1  0 -1               |    1  0  0  1 -1  0  1  0 -1
    0 -1  1  1 -1  0  0 -1  0               |    0 -1  1  1 -1  0  0 -1  0
    0  1 -1 -1  1  0  0  1  0               |    0  1 -1 -1  1  0  0  1  0
    1  0  0  0  0  1  0  1  0               |    1  0  0  0  0  1  0  1  0
   -1  0  0  0  0 -1  0 -1  0               |   -1  0  0  0  0 -1  0 -1  0
    0  1 -1  0  0 -1  1  0 -1               |    0  1 -1  0  0 -1  1  0 -1
    0 -1  1  0  0  1 -1  0  1               |    0 -1  1  0  0  1 -1  0  1
   -1  0  1 -1  1  0 -1  0  0               |   -1  0  1 -1  1  0 -1  0  0
    1  0 -1  1 -1  0  1  0  0               |    1  0 -1  1 -1  0  1  0  0
    0 -1  0  1 -1  0  0 -1  1               |    0 -1  0  1 -1  0  0 -1  1
    0  1  0 -1  1  0  0  1 -1               |    0  1  0 -1  1  0  0  1 -1
    1  0 -1  0  0 -1  0  1 -1               |    1  0 -1  0  0 -1  0  1 -1
   -1  0  1  0  0  1  0 -1  1               |   -1  0  1  0  0  1  0 -1  1
    0  1  0  0  0  1  1  0  0               |    0  1  0  0  0  1  1  0  0
    0 -1  0  0  0 -1 -1  0  0               |    0 -1  0  0  0 -1 -1  0  0
    1  0 -1  0  1 -1  0  0 -1               |    1  0 -1  0  1 -1  0  0 -1
   -1  0  1  0 -1  1  0  0  1               |   -1  0  1  0 -1  1  0  0  1
    0 -1  0  0 -1  1  1 -1  0               |    0 -1  0  0 -1  1  1 -1  0
    0  1  0  0  1 -1 -1  1  0               |    0  1  0  0  1 -1 -1  1  0
   -1  0  1 -1  0  0 -1  1  0               |   -1  0  1 -1  0  0 -1  1  0
    1  0 -1  1  0  0  1 -1  0               |    1  0 -1  1  0  0  1 -1  0
    0  1  0  1  0  0  0  0  1               |    0  1  0  1  0  0  0  0  1
    0 -1  0 -1  0  0  0  0 -1               |    0 -1  0 -1  0  0  0  0 -1
    0  0 -1  0  1 -1  1  0 -1               |    0  0 -1  0  1 -1  1  0 -1
    0  0  1  0 -1  1 -1  0  1               |    0  0  1  0 -1  1 -1  0  1
    1 -1  0  0 -1  1  0 -1  0               |    1 -1  0  0 -1  1  0 -1  0
   -1  1  0  0  1 -1  0  1  0               |   -1  1  0  0  1 -1  0  1  0
    0  0  1  1  0  0  0  1  0               |    0  0  1  1  0  0  0  1  0
    0  0 -1 -1  0  0  0 -1  0               |    0  0 -1 -1  0  0  0 -1  0
   -1  1  0 -1  0  0 -1  0  1               |   -1  1  0 -1  0  0 -1  0  1
    1 -1  0  1  0  0  1  0 -1               |    1 -1  0  1  0  0  1  0 -1
    0  0  1  0  1  0  1  0  0               |    0  0  1  0  1  0  1  0  0
    0  0 -1  0 -1  0 -1  0  0               |    0  0 -1  0 -1  0 -1  0  0
    1 -1  0  0 -1  0  0 -1  1               |    1 -1  0  0 -1  0  0 -1  1
   -1  1  0  0  1  0  0  1 -1               |   -1  1  0  0  1  0  0  1 -1
    0  0 -1  1  0 -1  0  1 -1               |    0  0 -1  1  0 -1  0  1 -1
    0  0  1 -1  0  1  0 -1  1               |    0  0  1 -1  0  1  0 -1  1
   -1  1  0 -1  0  1 -1  0  0               |   -1  1  0 -1  0  1 -1  0  0
    1 -1  0  1  0 -1  1  0  0               |    1 -1  0  1  0 -1  1  0  0
  typat:                                    |  typat:
    1  1                                    |    1  1
  so_psp  :                                 |  so_psp  :
    1                                       |    1

--- !COMMENT
src_file: m_hdr.F90
src_line: 4225
message: |
    input kptrlatt = 2 0 0 0 2 0 0 0 2  /= disk file kptrlatt = 8 0 0 0 8 0 0 0 8
...


--- !WARNING
src_file: m_hdr.F90
src_line: 4249
message: |
    input ival=0 not equal disk file ival=4
...

  tnons:                                    |  tnons:
     0.0000000   0.0000000   0.0000000      |     0.0000000   0.0000000   0.0000000
     0.2500000   0.2500000   0.2500000      |     0.2500000   0.2500000   0.2500000
     0.0000000   0.0000000   0.0000000      |     0.0000000   0.0000000   0.0000000
     0.2500000   0.2500000   0.2500000      |     0.2500000   0.2500000   0.2500000
     0.0000000   0.0000000   0.0000000      |     0.0000000   0.0000000   0.0000000
     0.2500000   0.2500000   0.2500000      |     0.2500000   0.2500000   0.2500000
     0.0000000   0.0000000   0.0000000      |     0.0000000   0.0000000   0.0000000
     0.2500000   0.2500000   0.2500000      |     0.2500000   0.2500000   0.2500000
     0.0000000   0.0000000   0.0000000      |     0.0000000   0.0000000   0.0000000
     0.2500000   0.2500000   0.2500000      |     0.2500000   0.2500000   0.2500000
     0.0000000   0.0000000   0.0000000      |     0.0000000   0.0000000   0.0000000
     0.2500000   0.2500000   0.2500000      |     0.2500000   0.2500000   0.2500000
     0.0000000   0.0000000   0.0000000      |     0.0000000   0.0000000   0.0000000
     0.2500000   0.2500000   0.2500000      |     0.2500000   0.2500000   0.2500000
     0.0000000   0.0000000   0.0000000      |     0.0000000   0.0000000   0.0000000
     0.2500000   0.2500000   0.2500000      |     0.2500000   0.2500000   0.2500000
     0.0000000   0.0000000   0.0000000      |     0.0000000   0.0000000   0.0000000
     0.2500000   0.2500000   0.2500000      |     0.2500000   0.2500000   0.2500000
     0.0000000   0.0000000   0.0000000      |     0.0000000   0.0000000   0.0000000
     0.2500000   0.2500000   0.2500000      |     0.2500000   0.2500000   0.2500000
     0.0000000   0.0000000   0.0000000      |     0.0000000   0.0000000   0.0000000
     0.2500000   0.2500000   0.2500000      |     0.2500000   0.2500000   0.2500000
     0.0000000   0.0000000   0.0000000      |     0.0000000   0.0000000   0.0000000
     0.2500000   0.2500000   0.2500000      |     0.2500000   0.2500000   0.2500000
     0.0000000   0.0000000   0.0000000      |     0.0000000   0.0000000   0.0000000
     0.2500000   0.2500000   0.2500000      |     0.2500000   0.2500000   0.2500000
     0.0000000   0.0000000   0.0000000      |     0.0000000   0.0000000   0.0000000
     0.2500000   0.2500000   0.2500000      |     0.2500000   0.2500000   0.2500000
     0.0000000   0.0000000   0.0000000      |     0.0000000   0.0000000   0.0000000
     0.2500000   0.2500000   0.2500000      |     0.2500000   0.2500000   0.2500000
     0.0000000   0.0000000   0.0000000      |     0.0000000   0.0000000   0.0000000
     0.2500000   0.2500000   0.2500000      |     0.2500000   0.2500000   0.2500000
     0.0000000   0.0000000   0.0000000      |     0.0000000   0.0000000   0.0000000
     0.2500000   0.2500000   0.2500000      |     0.2500000   0.2500000   0.2500000
     0.0000000   0.0000000   0.0000000      |     0.0000000   0.0000000   0.0000000
     0.2500000   0.2500000   0.2500000      |     0.2500000   0.2500000   0.2500000
     0.0000000   0.0000000   0.0000000      |     0.0000000   0.0000000   0.0000000
     0.2500000   0.2500000   0.2500000      |     0.2500000   0.2500000   0.2500000
     0.0000000   0.0000000   0.0000000      |     0.0000000   0.0000000   0.0000000
     0.2500000   0.2500000   0.2500000      |     0.2500000   0.2500000   0.2500000
     0.0000000   0.0000000   0.0000000      |     0.0000000   0.0000000   0.0000000
     0.2500000   0.2500000   0.2500000      |     0.2500000   0.2500000   0.2500000
     0.0000000   0.0000000   0.0000000      |     0.0000000   0.0000000   0.0000000
     0.2500000   0.2500000   0.2500000      |     0.2500000   0.2500000   0.2500000
     0.0000000   0.0000000   0.0000000      |     0.0000000   0.0000000   0.0000000
     0.2500000   0.2500000   0.2500000      |     0.2500000   0.2500000   0.2500000
     0.0000000   0.0000000   0.0000000      |     0.0000000   0.0000000   0.0000000
     0.2500000   0.2500000   0.2500000      |     0.2500000   0.2500000   0.2500000
   znucl:                                   |   znucl:
    6.00                                    |        6.00
  pseudopotential atom type  1:             |  pseudopotential atom type  1:
  pspso   0 pspxc  11                       |  pspso   0 pspxc  11
  pspdat   170503 pspcod    8 zion   4.0    |  pspdat   170503 pspcod    8 zion   4.0
  xred:                                     |  xred:
     0.0000000   0.0000000   0.0000000      |     0.0000000   0.0000000   0.0000000
     0.2500000   0.2500000   0.2500000      |     0.2500000   0.2500000   0.2500000
 hdr_check:  Density/Potential file is OK for restart of calculation
================================================================================
 read_rhor , wall:  0.01 [s] , cpu:  0.02 [s] <<< TIME

--- !PstatData
iteration_state: {dtset: 1, }
pid: 21579
file: m_gstate.F90
line: 1364
vmrss_mb:   4.82773438E+01
min_mpicomm_vmrss_mb:   4.82773438E+01
max_mpicomm_vmrss_mb:   4.82773438E+01
vmpeak_mb:   0.00000000E+00
vmstk_mb:   0.00000000E+00
...


================================================================================

--- !PstatData
iteration_state: {dtset: 1, }
pid: 21579
file: m_scfcv_core.F90
line: 1032
vmrss_mb:   4.83632812E+01
min_mpicomm_vmrss_mb:   4.83632812E+01
max_mpicomm_vmrss_mb:   4.83632812E+01
vmpeak_mb:   0.00000000E+00
vmstk_mb:   0.00000000E+00
...


 getcut: wavevector=  0.0000  0.0000  0.0000  ngfft=  30  30  30
         ecut(hartree)=     45.000   => boxcut(ratio)=   2.08343

 1/G**2 cut-off applied in the following step : cutoff-mode = CRYSTAL

 1/G**2 cut-off applied in the following step : cutoff-mode = CRYSTAL

 1/G**2 cut-off applied in the following step : cutoff-mode = CRYSTAL
 Max number of non-self-consistent loops: 150
 cgwf: tolwfr_diago=    1.000000E-14
 k-point: [ 1 / 3 ], spin: 1
   Max resid = 5.41918E+00  (exclude nbdbuf bands). One NSCF iteration cpu-time:  0.08 [s] , wall-time:  0.09 [s]
   Max resid = 7.38437E-02  (exclude nbdbuf bands). One NSCF iteration cpu-time:  0.09 [s] , wall-time:  0.09 [s]
   Max resid = 4.08639E-04  (exclude nbdbuf bands). One NSCF iteration cpu-time:  0.08 [s] , wall-time:  0.07 [s]
   Printing residuals every mod(20) iterations...
   NSCF loop completed after 8 iterations
 
 -------------------------------------------------------------------------------------------------
 Ekinetic   = :     0.000000E+00 Ha ,    0.000000E+00 eV
 Evext_l    = :     0.000000E+00 Ha ,    0.000000E+00 eV
 Evext_nl   = :     0.000000E+00 Ha ,    0.000000E+00 eV
 Epsp_core  = :     8.972272E-01 Ha ,    2.441479E+01 eV
 Ehartree   = :     0.000000E+00 Ha ,    0.000000E+00 eV
 Exc_ks     = :    -4.336074E+00 Ha ,   -1.179906E+02 eV
 Enn        = :    -1.276682E+01 Ha ,   -3.474027E+02 eV
 -------------------------------------------------------------------------------------------------
 Etot       = :    -1.620566E+01 Ha ,   -4.409785E+02 eV
 -------------------------------------------------------------------------------------------------

 fftdatar_write: About to write data to: gwo_DS1_DEN with iomode: IO_MODE_ETSF
- Creating HDf5 file with MPI-IO support: gwo_DS1_DEN.nc
- Opening HDf5 file with MPI-IO support: gwo_DS1_DEN.nc
 IO operation , wall:  0.08 [s] , cpu:  0.06 [s] <<< TIME
 Integrated electronic density in atomic spheres:
 ------------------------------------------------
 Atom  Sphere_radius  Integrated_density
    1        2.00000          4.70954550
    2        2.00000          4.67162999
- Creating HDf5 file with MPI-IO support: gwo_DS1_GSR.nc
================================================================================

 ----iterations are completed or convergence reached----


 === Gap info ===
  >>>> For spin  1
   Minimum direct gap =   5.6106 [eV], located at k-point      :   0.0000  0.0000  0.0000
   Fundamental gap    =   4.8146 [eV], Top of valence bands at :   0.0000  0.0000  0.0000
                                       Bottom of conduction at :   0.5000  0.5000  0.0000
 Mean square residual over all n,k,spin=   35.847E-16; max=  97.804E-16
   0.0000  0.0000  0.0000    1  2.96384E-10 kpt; spin; max resid(k); each band:
  4.36E-15 4.90E-16 6.16E-16 3.51E-16 8.28E-15 2.95E-16 7.12E-15 5.40E-15
  1.63E-15 3.98E-16 3.15E-15 7.59E-15 5.18E-16 8.18E-15 3.07E-15 5.41E-16
  3.99E-16 5.56E-16 4.16E-16 4.70E-16 8.74E-15 5.46E-15 1.89E-16 7.62E-16
  3.10E-16 1.85E-15 7.99E-15 8.31E-15 1.50E-15 4.37E-16 7.29E-15 1.66E-15
  1.31E-15 8.44E-15 9.88E-16 3.86E-15 4.53E-15 4.46E-15 2.59E-15 5.17E-15
  7.02E-16 7.17E-15 8.58E-15 9.48E-15 6.71E-15 6.14E-15 4.60E-15 7.58E-15
  2.61E-15 2.30E-15 8.28E-16 2.81E-15 1.43E-15 4.88E-16 2.70E-15 4.54E-15
  7.04E-15 3.24E-15 7.65E-15 2.93E-15 2.61E-15 9.49E-15 4.00E-15 1.86E-14
  3.95E-13 2.22E-11 1.94E-10 2.96E-10 6.60E-11 1.53E-10
   0.5000  0.0000  0.0000    1  7.14543E-12 kpt; spin; max resid(k); each band:
  3.58E-15 7.56E-16 1.56E-15 5.19E-16 6.17E-16 7.43E-15 9.45E-15 1.31E-15
  7.84E-16 4.50E-16 3.84E-16 2.27E-16 2.37E-15 7.38E-16 1.76E-16 5.71E-16
  1.09E-15 4.36E-16 1.18E-15 7.82E-16 3.86E-16 7.90E-16 7.54E-16 2.84E-16
  8.08E-16 4.00E-15 1.98E-15 2.37E-15 2.08E-15 1.44E-15 4.71E-15 2.91E-15
  4.93E-15 5.56E-15 9.56E-15 6.44E-16 8.06E-16 3.97E-15 2.68E-15 3.20E-15
  1.08E-15 3.37E-15 2.45E-15 1.60E-15 1.58E-15 1.95E-15 1.36E-15 2.49E-15
  7.37E-15 1.80E-15 7.96E-15 9.40E-15 7.28E-15 8.32E-15 3.15E-15 3.36E-15
  5.57E-15 7.71E-15 1.76E-15 8.86E-15 9.54E-15 5.88E-15 5.30E-15 5.94E-15
  5.39E-15 2.36E-15 4.18E-14 9.47E-15 2.86E-12 7.15E-12
   0.5000  0.5000  0.0000    1  2.14789E-02 kpt; spin; max resid(k); each band:
  8.21E-15 9.78E-15 7.29E-16 1.75E-15 4.45E-15 8.91E-16 3.02E-15 3.75E-15
  7.89E-15 3.29E-15 1.91E-15 4.34E-15 3.25E-15 9.00E-15 3.52E-15 2.12E-15
  9.02E-16 6.34E-15 5.02E-15 2.11E-15 1.35E-15 2.32E-15 9.57E-15 6.02E-15
  5.45E-15 3.88E-16 1.97E-16 6.23E-15 7.38E-15 6.94E-15 7.94E-15 7.13E-16
  3.84E-16 1.17E-15 7.85E-15 3.60E-15 1.17E-15 2.74E-15 1.02E-15 1.04E-15
  6.66E-15 3.02E-15 8.10E-15 4.12E-15 6.78E-15 1.15E-15 2.38E-15 2.97E-15
  9.97E-16 6.74E-15 4.81E-15 6.26E-15 6.97E-15 2.65E-15 3.51E-15 2.54E-15
  1.62E-15 2.38E-15 6.01E-15 1.86E-15 3.27E-15 1.46E-15 2.81E-15 4.00E-15
  1.66E-08 1.87E-06 5.17E-08 5.74E-05 8.07E-06 2.15E-02
 In cg_ncwrite with path: gwo_DS1_WFK.nc
 same layout --> writing WFK file: gwo_DS1_WFK.nc, with iomode: IO_MODE_ETSF, single writer: F

--- !COMMENT
src_file: m_iowf.F90
src_line: 851
message: |
    Will create subcommunicator to exclude idle processors from MPI-IO collective calls
...

Using collective IO for the CGs
 collective ncwrite , wall:  0.08 [s] , cpu:  0.08 [s] <<< TIME
 prteigrs : about to open file gwo_DS1_EIG
 Eigenvalues (hartree) for nkpt=   3  k points:
 kpt#   1, nband= 70, wtk=  0.12500, kpt=  0.0000  0.0000  0.0000 (reduced coord)
  -0.41171    0.37562    0.37562    0.37562    0.58180    0.58180    0.58180    0.86143
   1.08248    1.36066    1.36066    1.38895    1.38895    1.38895    1.65152    2.10589
   2.10589    2.10589    2.87303    2.87303    2.87303    3.02847    3.02847    3.10784
   3.10784    3.10784    3.26960    3.26960    3.26960    3.56244    4.02943    4.02943
   4.02943    4.23356    4.23356    4.23356    4.25719    4.25719    4.25764    4.25764
   4.39333    4.39333    4.39333    4.42405    4.42405    4.42405    4.46726    4.46726
   4.46726    4.53529    4.74893    4.81499    4.81499    4.81499    4.84313    4.84313
   4.84313    5.08923    5.26429    6.19701    6.19701    6.19701    6.46298    6.46298
   6.56357    6.56357    6.56357    6.72689    7.03881    7.03881
 kpt#   2, nband= 70, wtk=  0.50000, kpt=  0.5000  0.0000  0.0000 (reduced coord)
  -0.20045   -0.11439    0.27273    0.27273    0.68780    0.68780    0.70009    0.95131
   1.17777    1.26064    1.33038    1.33038    1.63488    1.63488    2.06357    2.33208
   2.33208    2.44548    2.47234    2.47234    2.57533    2.57533    2.69422    2.76613
   3.07451    3.07451    3.18644    3.18644    3.31468    3.43187    3.51039    3.51039
   3.58530    3.59439    3.91811    3.91811    4.12728    4.20267    4.20267    4.25642
   4.48237    4.54412    4.84098    4.84098    4.94524    4.94524    5.04473    5.04473
   5.07610    5.07610    5.15193    5.27516    5.34200    5.34200    5.57780    5.60322
   5.60322    5.87013    5.87013    5.91022    5.91022    6.05601    6.06614    6.08236
   6.13574    6.13574    6.18844    6.18844    6.20399    6.23958
 kpt#   3, nband= 70, wtk=  0.37500, kpt=  0.5000  0.5000  0.0000 (reduced coord)
  -0.09265   -0.09265    0.14458    0.14458    0.55255    0.55255    0.99075    0.99075
   1.22590    1.22590    1.56835    1.56835    1.78929    1.78929    2.16664    2.16664
   2.17044    2.17044    2.20955    2.20955    2.32587    2.32587    2.90964    2.90964
   3.01027    3.01027    3.21611    3.21611    3.42341    3.42341    3.74199    3.74199
   3.87134    3.87134    3.90151    3.90151    3.95474    3.95474    4.04451    4.04451
   4.48876    4.48876    4.65373    4.65373    4.89648    4.89648    5.15169    5.15169
   5.29014    5.29014    5.36598    5.36598    5.55897    5.55897    5.63372    5.63372
   5.66395    5.66395    5.71388    5.71388    5.73766    5.73766    5.98678    5.98678
   6.50789    6.50789    6.58400    6.58403    6.68785    6.70166
 Total charge density [el/Bohr^3]
)     Maximum=    2.9519E-01  at reduced coord.    0.2000    0.2000    0.4333
)Next maximum=    2.9519E-01  at reduced coord.    0.1667    0.2000    0.4333
)     Minimum=    1.3092E-02  at reduced coord.    0.5000    0.5000    0.5000
)Next minimum=    1.3251E-02  at reduced coord.    0.7667    0.7333    0.7333
   Integrated=    8.0000E+00
 dataset: 1 , wall:  1.08 [s] , cpu:  1.02 [s] <<< TIME

================================================================================
== DATASET  2 ==================================================================
-   mpi_nproc: 4, omp_nthreads: -1 (-1 if OMP is not activated)


--- !COMMENT
src_file: m_xgScalapack.F90
src_line: 238
message: |
    xgScalapack in auto mode
...

 mkfilename : getwfk/=0, take file _WFK from output of DATASET   1.

 mkfilename: getden from: gso_DEN.nc


 getdim_nloc: deduce lmnmax  =   8, lnmax  =   4,
                      lmnmaxso=   8, lnmaxso=   4.
 Exchange-correlation functional for the present dataset will be:
  GGA: Perdew-Burke-Ernzerhof functional - ixc=11
 Citation for XC functional:
  J.P.Perdew, K.Burke, M.Ernzerhof, PRL 77, 3865 (1996)


--- !PstatData
iteration_state: {dtset: 2, }
pid: 21579
file: m_driver.F90
line: 755
vmrss_mb:   5.52031250E+01
min_mpicomm_vmrss_mb:   5.52031250E+01
max_mpicomm_vmrss_mb:   5.52031250E+01
vmpeak_mb:   0.00000000E+00
vmstk_mb:   0.00000000E+00
...

 SCREENING: Calculation of the susceptibility and dielectric matrices 

 Based on a program developped by R.W. Godby, V. Olevano, G. Onida, and L. Reining.
 Incorporated in ABINIT by V. Olevano, G.-M. Rignanese, and M. Torrent.
.Using single precision arithmetic ; gwpc =  4

- File: gwo_DS1_WFK does not exist but found netcdf file with similar name.
 Unit cell volume ucvol=  7.6920896E+01 bohr^3
 Angles (23,13,12)=  6.00000000E+01  6.00000000E+01  6.00000000E+01 degrees

 getcut: wavevector=  0.0000  0.0000  0.0000  ngfft=  30  30  30
         ecut(hartree)=     45.000   => boxcut(ratio)=   2.08343

 ==== Dense FFT mesh used for densities and potentials ====
  FFT mesh divisions ........................    30   30   30
  Augmented FFT divisions ...................    31   31   30
  FFT algorithm .............................   512
  FFT cache size ............................    16

 GW calculation type              =    0
 zcut to avoid poles in chi0 [eV] =   0.100000

 Reading eigenvalues from: gwo_DS1_WFK.nc , with iomode: IO_MODE_ETSF
 wfk_read_eigenvalues_io , wall:  0.02 [s] , cpu:  0.03 [s] <<< TIME
 wfk_read_eigenvalues , wall:  0.02 [s] , cpu:  0.03 [s] <<< TIME

 Sorting g-vecs for an output of states on an unique "big" PW basis.
 Since the number of g's to be written on file
 was 0 or too large, it has been set to the max. value.,
 computed from the union of the sets of G vectors for the different k-points.
 Number of G-vectors is:  1435

  ==== Info on the Cryst% object ====
 Real(R)+Recip(G) space primitive vectors, cartesian coordinates (Bohr,Bohr^-1):
 R(1)=  0.0000000  3.3755000  3.3755000  G(1)= -0.1481262  0.1481262  0.1481262
 R(2)=  3.3755000  0.0000000  3.3755000  G(2)=  0.1481262 -0.1481262  0.1481262
 R(3)=  3.3755000  3.3755000  0.0000000  G(3)=  0.1481262  0.1481262 -0.1481262
 Unit cell volume ucvol=  7.6920896E+01 bohr^3
 Angles (23,13,12)=  6.00000000E+01  6.00000000E+01  6.00000000E+01 degrees
 Time-reversal symmetry is present
 Reduced atomic positions [iatom, xred, symbol]:
    1)    0.0000000  0.0000000  0.0000000   C
    2)    0.2500000  0.2500000  0.2500000   C
 ==== K-mesh for the wavefunctions ====
 Number of points in the irreducible wedge :     3
 Reduced coordinates and weights : 

     1)     0.00000000E+00  0.00000000E+00  0.00000000E+00       0.12500
     2)     5.00000000E-01  0.00000000E+00  0.00000000E+00       0.50000
     3)     5.00000000E-01  5.00000000E-01  0.00000000E+00       0.37500

 Together with 48 symmetry operations and time-reversal symmetry 
 yields     8 points in the full Brillouin Zone.


 ==== Q-mesh for the screening function ====
 Number of points in the irreducible wedge :     3
 Reduced coordinates and weights : 

     1)     0.00000000E+00  0.00000000E+00  0.00000000E+00       0.12500
     2)     5.00000000E-01  0.00000000E+00  0.00000000E+00       0.50000
     3)     5.00000000E-01  5.00000000E-01  0.00000000E+00       0.37500

 Together with 48 symmetry operations and time-reversal symmetry 
 yields     8 points in the full Brillouin Zone.


 Optimal value for ng0sh: [1, 1, 1]
  Due to umklapp processes : ecutepspg0=    1.7324223067468310     

 setmesh: npwwfn        =     1067; Max (m1,m2,m3)   =      7     7     7
          npweps/npwsigx=       15; Max (mm1,mm2,mm3)=      2     2     2
          mG0 added     =   1  1  1
 calculated ecutwfn          =  43.311 [Ha] 
 calculated ecutsigx/ecuteps =   1.732 [Ha]
 using method =  2 with ecuteff =  62.367 [Ha]
 Finding a FFT mesh compatible with all the symmetries
 setmesh: divisor mesh 4 4 4
 setmesh: FFT mesh size selected  =    20x   20x   20
          total number of points  =         8000


 vcoul_init : cutoff-mode = AUXILIARY_FUNCTION
 q-points for optical limit:   1
     1)      0.000010    0.000020    0.000030

--- !PstatData
iteration_state: {dtset: 2, }
pid: 21579
file: m_screening_driver.F90
line: 322
vmrss_mb:   5.85039062E+01
min_mpicomm_vmrss_mb:   5.85039062E+01
max_mpicomm_vmrss_mb:   5.85039062E+01
vmpeak_mb:   0.00000000E+00
vmstk_mb:   0.00000000E+00
...


 ==== FFT mesh used for oscillator strengths ====
  FFT mesh divisions ........................    20   20   20
  Augmented FFT divisions ...................    21   21   20
  FFT algorithm .............................   512
  FFT cache size ............................    16
 Top of valence:  10.2211 (eV)
 Bottom of conduction:  15.0357 (eV)
 Fundamental gap:  4.8146 (eV)

 Fermi level: 12.6284  (eV) 

 Memory needed for Fourier components u(G):      0.2 [Mb] <<< MEM
 Storing wavefunctions in single precision as `enable_gw_dpc="no"`
 Memory needed for real-space u(r):      3.3 [Mb] <<< MEM
 Memory needed for bks_tab:      0.0 [Mb] <<< MEM
 wfd_init , wall:  0.01 [s] , cpu:  0.00 [s] <<< TIME
 ==== Info on the wfd% object ====
  Number of irreducible k-points ........ 3
  Number of spinorial components ........ 1
  Number of spin-density components ..... 1
  Number of spin polarizations .......... 1
  Plane wave cutoff energy ..............  45.0
  Max number of G-vectors ............... 553
  Total number of FFT points ............ 8000
  Number of FFT points treated by me .... 8000


 ==== FFT mesh for wavefunctions ====
  FFT mesh divisions ........................    20   20   20
  Augmented FFT divisions ...................    21   21   20
  FFT algorithm .............................   512
  FFT cache size ............................    16

P Total number of (b,k,s) states stored by this rank: 54
P Memory allocated for Fourier components u(G):      0.2 [Mb] <<< MEM
P Memory allocated for real-space u(r):      0.0 [Mb] <<< MEM
P Memory needed for wfd%s datastructure:      0.0 [Mb] <<< MEM
P Memory needed for wfd%s(0)%k datastructure:      0.0 [Mb] <<< MEM
P Memory allocated for Kdata array:      0.0 [Mb] <<< MEM



 wfd_read_wfk: Reading file: gwo_DS1_WFK.nc  with iomode: IO_MODE_ETSF , master_only: yes
 About to read: 54  (b, k, s) states in total.
 For spin: 1 , will read: 3  k-points out of: 3
    Reading kpt [1/3] spin [1/1] , wall:  0.00 [s] , cpu:  0.00 [s] <<< TIME
    Reading kpt [2/3] spin [1/1] , wall:  0.00 [s] , cpu:  0.00 [s] <<< TIME
    Reading kpt [3/3] spin [1/1] , wall:  0.00 [s] , cpu:  0.00 [s] <<< TIME
 WFK IO , wall:  0.00 [s] , cpu:  0.00 [s] <<< TIME



--- !PstatData
iteration_state: {dtset: 2, }
pid: 21579
file: m_screening_driver.F90
line: 642
vmrss_mb:   6.07265625E+01
min_mpicomm_vmrss_mb:   6.07265625E+01
max_mpicomm_vmrss_mb:   6.07265625E+01
vmpeak_mb:   0.00000000E+00
vmstk_mb:   0.00000000E+00
...


--- !WARNING
src_file: m_wfd.F90
src_line: 3780
message: |
    FFT mesh not compatible with symmetries. Wavefunction symmetrization should not be done in r-space!
...

 planewave contribution to nelect:    8.0000
 Number of electrons calculated from density =    8.0000; Expected =    8.0000
 average of density, n =  0.104003
 r_s =    1.3191
 omega_plasma =   31.1085 [eV]

 Total charge density [el/Bohr^3]
)     Maximum=    3.1352E-01  at reduced coord.    0.2000    0.2000    0.4333
)     Minimum=    1.0213E-02  at reduced coord.    0.5000    0.5000    0.5000
   Integrated=    8.0000E+00

 1/G**2 cut-off applied in the following step : cutoff-mode = CRYSTAL

 calculating chi0 at frequencies [eV] :
  1    0.000000E+00    0.000000E+00
  2    0.000000E+00    3.110845E+01
 Memory required for chi0 matrix=          0.0 [Mb].

--- !PstatData
iteration_state: {dtset: 2, }
pid: 21579
file: m_screening_driver.F90
line: 1138
vmrss_mb:   6.40234375E+01
min_mpicomm_vmrss_mb:   6.40234375E+01
max_mpicomm_vmrss_mb:   6.40234375E+01
vmpeak_mb:   0.00000000E+00
vmstk_mb:   0.00000000E+00
...



--------------------------------------------------------------------------------
  q-point number  1        q = ( 0.000000, 0.000000, 0.000000) [r.l.u.]
--------------------------------------------------------------------------------

--- !PstatData
iteration_state: {dtset: 2, }
pid: 21579
file: m_screening_driver.F90
line: 1177
vmrss_mb:   6.40312500E+01
min_mpicomm_vmrss_mb:   6.40312500E+01
max_mpicomm_vmrss_mb:   6.40312500E+01
vmpeak_mb:   0.00000000E+00
vmstk_mb:   0.00000000E+00
...

 Q-points for long wave-length limit. #   1
     1)      0.000010    0.000020    0.000030

 Using spectral method for the imaginary part =  0
 Using symmetries to sum only over the IBZ_q  =  1
 Using faster algorithm based on time reversal symmetry.
 Memory needed for bbp_ks_distrb: 0.1  [Mb] <<< MEM
 Will sum 168 (b,b',k,s) states in chi0q0.
 Calculating chi0(q=(0,0,0),omega,G,G")

 ==== Little Group Info ==== 
  External point: [ 0.0000E+00,  0.0000E+00,  0.0000E+00]
  Number of points in the IBZ defined by little group:  3/8
  Number of operations in the little group: 96/48
  No time-reversal symmetry with zero umklapp: 48
  No time-reversal symmetry with non-zero umklapp:  0

  time-reversal symmetry with zero umklapp: 48
  time-reversal symmetry with non-zero umklapp:  0

 Calculation status: 3  k-points to be completed

--- !PstatData
iteration_state: {dtset: 2, }
pid: 21579
file: m_chi0.F90
line: 507
vmrss_mb:   6.40859375E+01
min_mpicomm_vmrss_mb:   6.40859375E+01
max_mpicomm_vmrss_mb:   6.40859375E+01
vmpeak_mb:   0.00000000E+00
vmstk_mb:   0.00000000E+00
...

 chi0q0: ik_bz: 1/8, spin: 1 , wall:  0.01 [s] , cpu:  0.02 [s] <<< TIME
 chi0q0: ik_bz: 2/8, spin: 1 , wall:  0.01 [s] , cpu:  0.02 [s] <<< TIME
cchi0q0 , wall:  0.04 [s] , cpu:  0.03 [s] <<< TIME
  chi0(G,G') at the    1 th omega   0.0000   0.0000 [eV]
  chi0(q =  1, omega =   1, G,G')
       1       2       3       4       5       6       7       8       9
    1  -0.000   0.000  -0.000  -0.000   0.000   0.000  -0.000  -0.000   0.000
        0.000   0.000   0.000  -0.000  -0.000   0.000   0.000  -0.000  -0.000

    2   0.000  -9.285  -0.000  -1.886   0.000  -1.887  -0.000  -1.886  -0.000
       -0.000   0.000  -4.067   0.000  -1.542   0.000  -1.542  -0.000  -1.542

    3  -0.000  -0.000  -9.285   0.000  -1.886  -0.000  -1.887  -0.000  -1.886
       -0.000   4.067   0.000   1.542  -0.000   1.542   0.000   1.542   0.000

    4  -0.000  -1.886   0.000  -9.285  -0.000  -1.886  -0.000  -1.887  -0.000
        0.000  -0.000  -1.542   0.000  -4.067   0.000  -1.542  -0.000  -1.542

    5   0.000   0.000  -1.886  -0.000  -9.285  -0.000  -1.886  -0.000  -1.887
        0.000   1.542   0.000   4.067   0.000   1.542   0.000   1.542   0.000

    6   0.000  -1.887  -0.000  -1.886  -0.000  -9.285  -0.000  -1.886  -0.000
       -0.000  -0.000  -1.542  -0.000  -1.542   0.000  -4.067  -0.000  -1.542

    7  -0.000  -0.000  -1.887  -0.000  -1.886  -0.000  -9.285   0.000  -1.886
       -0.000   1.542  -0.000   1.542  -0.000   4.067   0.000   1.542   0.000

    8  -0.000  -1.886  -0.000  -1.887  -0.000  -1.886   0.000  -9.285  -0.000
        0.000   0.000  -1.542   0.000  -1.542   0.000  -1.542   0.000  -4.067

    9   0.000  -0.000  -1.886  -0.000  -1.887  -0.000  -1.886  -0.000  -9.285
        0.000   1.542  -0.000   1.542  -0.000   1.542  -0.000   4.067   0.000

  chi0(G,G') at the    2 th omega   0.0000  31.1085 [eV]
  chi0(q =  1, omega =   2, G,G')
       1       2       3       4       5       6       7       8       9
    1  -0.000   0.000  -0.000  -0.000   0.000   0.000  -0.000  -0.000   0.000
        0.000   0.000   0.000  -0.000  -0.000   0.000   0.000  -0.000  -0.000

    2   0.000  -4.007  -0.000  -0.349   0.000  -0.350  -0.000  -0.350  -0.000
       -0.000   0.000  -0.704   0.000  -0.203   0.000  -0.203  -0.000  -0.203

    3  -0.000  -0.000  -4.007   0.000  -0.349  -0.000  -0.350  -0.000  -0.350
       -0.000   0.704   0.000   0.203   0.000   0.203  -0.000   0.203   0.000

    4  -0.000  -0.349   0.000  -4.007  -0.000  -0.349  -0.000  -0.350  -0.000
        0.000  -0.000  -0.203   0.000  -0.704   0.000  -0.203  -0.000  -0.203

    5   0.000   0.000  -0.349  -0.000  -4.007   0.000  -0.349  -0.000  -0.350
        0.000   0.203  -0.000   0.704   0.000   0.203  -0.000   0.203   0.000

    6   0.000  -0.350  -0.000  -0.349   0.000  -4.007   0.000  -0.349  -0.000
       -0.000  -0.000  -0.203  -0.000  -0.203   0.000  -0.704  -0.000  -0.203

    7  -0.000  -0.000  -0.350  -0.000  -0.349   0.000  -4.007  -0.000  -0.349
       -0.000   0.203   0.000   0.203   0.000   0.704   0.000   0.203   0.000

    8  -0.000  -0.350  -0.000  -0.350  -0.000  -0.349  -0.000  -4.007   0.000
        0.000   0.000  -0.203   0.000  -0.203   0.000  -0.203   0.000  -0.704

    9   0.000  -0.000  -0.350  -0.000  -0.350  -0.000  -0.349   0.000  -4.007
        0.000   0.203  -0.000   0.203  -0.000   0.203  -0.000   0.704   0.000

 Analyzing long wavelength limit for several q
 make_epsm1_driver , wall:  0.00 [s] , cpu:  0.00 [s] <<< TIME
 For q-point:  0.000010 0.000020 0.000030
  dielectric constant =  15.4394
  dielectric constant without local fields =  15.9265

  Average fulfillment of the sum rule on Im[epsilon] for q-point    1 :     96.37  [%]

--- !PstatData
iteration_state: {dtset: 2, }
pid: 21579
file: m_screening_driver.F90
line: 1539
vmrss_mb:   6.45976562E+01
min_mpicomm_vmrss_mb:   6.45976562E+01
max_mpicomm_vmrss_mb:   6.45976562E+01
vmpeak_mb:   0.00000000E+00
vmstk_mb:   0.00000000E+00
...

- Creating HDf5 file with MPI-IO support: gwo_DS2_SCR.nc


--------------------------------------------------------------------------------
  q-point number  2        q = ( 0.500000, 0.000000, 0.000000) [r.l.u.]
--------------------------------------------------------------------------------

--- !PstatData
iteration_state: {dtset: 2, }
pid: 21579
file: m_screening_driver.F90
line: 1177
vmrss_mb:   6.46679688E+01
min_mpicomm_vmrss_mb:   6.46679688E+01
max_mpicomm_vmrss_mb:   6.46679688E+01
vmpeak_mb:   0.00000000E+00
vmstk_mb:   0.00000000E+00
...

 Using spectral method for the imaginary part =  0
 Using symmetries to sum only over the IBZ_q  =  1
 Using faster algorithm based on time reversal symmetry.
 Memory needed for bbp_ks_distrb: 0.1  [Mb] <<< MEM
 Will sum 224 (b,b',k,s) states in chi0.
 Calculating chi0(q,omega,G,G")

 ==== Little Group Info ==== 
  External point: [ 5.0000E-01,  0.0000E+00,  0.0000E+00]
  Number of points in the IBZ defined by little group:  4/8
  Number of operations in the little group: 12/48
  No time-reversal symmetry with zero umklapp:  6
  No time-reversal symmetry with non-zero umklapp:  0

  time-reversal symmetry with zero umklapp:  6
  time-reversal symmetry with non-zero umklapp:  0

 Calculation status: 4 k-points to be completed

--- !PstatData
iteration_state: {dtset: 2, }
pid: 21579
file: m_chi0.F90
line: 1408
vmrss_mb:   6.46796875E+01
min_mpicomm_vmrss_mb:   6.46796875E+01
max_mpicomm_vmrss_mb:   6.46796875E+01
vmpeak_mb:   0.00000000E+00
vmstk_mb:   0.00000000E+00
...

 chi0: ik_bz: 1/8, spin: 1 , wall:  0.00 [s] , cpu:  0.00 [s] <<< TIME
 chi0: ik_bz: 2/8, spin: 1 , wall:  0.00 [s] , cpu:  0.00 [s] <<< TIME
 chi0: ik_bz: 3/8, spin: 1 , wall:  0.00 [s] , cpu:  0.02 [s] <<< TIME
cchi0 , wall:  0.02 [s] , cpu:  0.02 [s] <<< TIME
  chi0(G,G') at the    1 th omega   0.0000   0.0000 [eV]
  chi0(q =  2, omega =   1, G,G')
       1       2       3       4       5       6       7       8       9
    1  -6.379  -1.155   1.233  -1.435  -1.229  -1.435  -1.229  -1.435  -1.229
        0.000  -1.155  -1.233  -1.435   1.229  -1.435   1.229  -1.435   1.229

    2  -1.155  -7.837  -0.000  -1.255  -0.000  -1.255  -0.000  -1.255  -0.000
        1.155   0.000  -2.902  -0.000  -0.709  -0.000  -0.709  -0.000  -0.709

    3   1.233  -0.000  -6.379  -0.000  -0.685  -0.000  -0.685  -0.000  -0.685
        1.233   2.902   0.000   0.857   0.000   0.857   0.000   0.857   0.000

    4  -1.435  -1.255  -0.000  -9.929   0.000  -1.680   0.000  -1.680  -0.000
        1.435   0.000  -0.857   0.000  -2.021   0.000  -0.471   0.000  -0.471

    5  -1.229  -0.000  -0.685   0.000  -8.509   0.000  -1.319  -0.000  -1.320
       -1.229   0.709  -0.000   2.021   0.000   0.471   0.000   0.471   0.000

    6  -1.435  -1.255  -0.000  -1.680   0.000  -9.929  -0.000  -1.680  -0.000
        1.435   0.000  -0.857  -0.000  -0.471   0.000  -2.021  -0.000  -0.471

    7  -1.229  -0.000  -0.685   0.000  -1.319  -0.000  -8.507  -0.000  -1.319
       -1.229   0.709  -0.000   0.471  -0.000   2.021   0.000   0.471  -0.000

    8  -1.435  -1.255  -0.000  -1.680  -0.000  -1.680  -0.000  -9.929   0.000
        1.435   0.000  -0.857  -0.000  -0.471   0.000  -0.471   0.000  -2.021

    9  -1.229  -0.000  -0.685  -0.000  -1.320  -0.000  -1.319   0.000  -8.508
       -1.229   0.709  -0.000   0.471  -0.000   0.471   0.000   2.021   0.000

  chi0(G,G') at the    2 th omega   0.0000  31.1085 [eV]
  chi0(q =  2, omega =   2, G,G')
       1       2       3       4       5       6       7       8       9
    1  -1.918  -0.479   0.256  -0.276  -0.412  -0.276  -0.412  -0.276  -0.412
        0.000  -0.479  -0.256  -0.276   0.412  -0.276   0.412  -0.276   0.412

    2  -0.479  -4.083  -0.000  -0.309  -0.000  -0.309  -0.000  -0.309  -0.000
        0.479   0.000  -0.491  -0.000  -0.139  -0.000  -0.139  -0.000  -0.138

    3   0.256  -0.000  -1.918  -0.000  -0.231  -0.000  -0.231  -0.000  -0.231
        0.256   0.491   0.000   0.098   0.000   0.098   0.000   0.098   0.000

    4  -0.276  -0.309  -0.000  -3.964   0.000  -0.411  -0.000  -0.411  -0.000
        0.276   0.000  -0.098   0.000  -0.427   0.000  -0.093  -0.000  -0.093

    5  -0.412  -0.000  -0.231   0.000  -4.310  -0.000  -0.350  -0.000  -0.350
       -0.412   0.139  -0.000   0.427   0.000   0.093  -0.000   0.093   0.000

    6  -0.276  -0.309  -0.000  -0.411  -0.000  -3.964  -0.000  -0.411  -0.000
        0.276   0.000  -0.098  -0.000  -0.093   0.000  -0.427  -0.000  -0.093

    7  -0.412  -0.000  -0.231  -0.000  -0.350  -0.000  -4.308  -0.000  -0.349
       -0.412   0.139  -0.000   0.093   0.000   0.427   0.000   0.093   0.000

    8  -0.276  -0.309  -0.000  -0.411  -0.000  -0.411  -0.000  -3.964   0.000
        0.276   0.000  -0.098   0.000  -0.093   0.000  -0.093   0.000  -0.427

    9  -0.412  -0.000  -0.231  -0.000  -0.350  -0.000  -0.349   0.000  -4.309
       -0.412   0.138  -0.000   0.093  -0.000   0.093  -0.000   0.427   0.000

 make_epsm1_driver , wall:  0.00 [s] , cpu:  0.00 [s] <<< TIME
  Average fulfillment of the sum rule on Im[epsilon] for q-point    2 :     97.41  [%]

--- !PstatData
iteration_state: {dtset: 2, }
pid: 21579
file: m_screening_driver.F90
line: 1539
vmrss_mb:   6.47031250E+01
min_mpicomm_vmrss_mb:   6.47031250E+01
max_mpicomm_vmrss_mb:   6.47031250E+01
vmpeak_mb:   0.00000000E+00
vmstk_mb:   0.00000000E+00
...



--------------------------------------------------------------------------------
  q-point number  3        q = ( 0.500000, 0.500000, 0.000000) [r.l.u.]
--------------------------------------------------------------------------------

--- !PstatData
iteration_state: {dtset: 2, }
pid: 21579
file: m_screening_driver.F90
line: 1177
vmrss_mb:   6.47031250E+01
min_mpicomm_vmrss_mb:   6.47031250E+01
max_mpicomm_vmrss_mb:   6.47031250E+01
vmpeak_mb:   0.00000000E+00
vmstk_mb:   0.00000000E+00
...

 Using spectral method for the imaginary part =  0
 Using symmetries to sum only over the IBZ_q  =  1
 Using faster algorithm based on time reversal symmetry.
 Memory needed for bbp_ks_distrb: 0.1  [Mb] <<< MEM
 Will sum 224 (b,b',k,s) states in chi0.
 Calculating chi0(q,omega,G,G")

 ==== Little Group Info ==== 
  External point: [ 5.0000E-01,  5.0000E-01,  0.0000E+00]
  Number of points in the IBZ defined by little group:  4/8
  Number of operations in the little group: 16/48
  No time-reversal symmetry with zero umklapp:  8
  No time-reversal symmetry with non-zero umklapp:  0

  time-reversal symmetry with zero umklapp:  8
  time-reversal symmetry with non-zero umklapp:  0

 Calculation status: 4 k-points to be completed

--- !PstatData
iteration_state: {dtset: 2, }
pid: 21579
file: m_chi0.F90
line: 1408
vmrss_mb:   6.47031250E+01
min_mpicomm_vmrss_mb:   6.47031250E+01
max_mpicomm_vmrss_mb:   6.47031250E+01
vmpeak_mb:   0.00000000E+00
vmstk_mb:   0.00000000E+00
...

 chi0: ik_bz: 1/8, spin: 1 , wall:  0.00 [s] , cpu:  0.00 [s] <<< TIME
 chi0: ik_bz: 2/8, spin: 1 , wall:  0.00 [s] , cpu:  0.02 [s] <<< TIME
cchi0 , wall:  0.02 [s] , cpu:  0.02 [s] <<< TIME
  chi0(G,G') at the    1 th omega   0.0000   0.0000 [eV]
  chi0(q =  3, omega =   1, G,G')
       1       2       3       4       5       6       7       8       9
    1  -8.387  -1.711  -1.042  -1.042  -1.711  -1.042  -1.711  -1.711  -1.042
        0.000  -1.711   1.042  -1.042   1.711  -1.042   1.711  -1.711   1.042

    2  -1.711  -8.131   0.000  -1.180  -0.000  -1.180  -0.000  -1.280  -0.000
        1.711   0.000  -1.694  -0.000  -0.307   0.000  -0.308  -0.000  -0.457

    3  -1.042   0.000  -8.978  -0.000  -1.180  -0.000  -1.180  -0.000  -0.092
       -1.042   1.694   0.000  -0.000   0.000   0.000   0.000   0.457   0.000

    4  -1.042  -1.180  -0.000  -8.978   0.000  -0.092  -0.000  -1.180  -0.000
        1.042   0.000   0.000   0.000  -1.694   0.000  -0.457   0.000   0.000

    5  -1.711  -0.000  -1.180   0.000  -8.131  -0.000  -1.280  -0.000  -1.180
       -1.711   0.307  -0.000   1.694   0.000   0.457   0.000   0.308  -0.000

    6  -1.042  -1.180  -0.000  -0.092  -0.000  -8.978   0.000  -1.180   0.000
        1.042  -0.000  -0.000  -0.000  -0.457   0.000  -1.694   0.000  -0.000

    7  -1.711  -0.000  -1.180  -0.000  -1.280   0.000  -8.131  -0.000  -1.180
       -1.711   0.308  -0.000   0.457  -0.000   1.694   0.000   0.307  -0.000

    8  -1.711  -1.280  -0.000  -1.180  -0.000  -1.180  -0.000  -8.131   0.000
        1.711   0.000  -0.457  -0.000  -0.308  -0.000  -0.307   0.000  -1.694

    9  -1.042  -0.000  -0.092  -0.000  -1.180   0.000  -1.180   0.000  -8.978
       -1.042   0.457  -0.000  -0.000   0.000   0.000   0.000   1.694   0.000

  chi0(G,G') at the    2 th omega   0.0000  31.1085 [eV]
  chi0(q =  3, omega =   2, G,G')
       1       2       3       4       5       6       7       8       9
    1  -2.405  -0.529  -0.218  -0.218  -0.529  -0.218  -0.529  -0.529  -0.218
        0.000  -0.529   0.218  -0.218   0.529  -0.218   0.529  -0.529   0.218

    2  -0.529  -4.221   0.000  -0.334  -0.000  -0.334  -0.000  -0.312   0.000
        0.529   0.000  -0.362  -0.000  -0.105  -0.000  -0.106  -0.000  -0.089

    3  -0.218   0.000  -3.483  -0.000  -0.334  -0.000  -0.334  -0.000  -0.248
       -0.218   0.362   0.000  -0.000   0.000   0.000   0.000   0.089   0.000

    4  -0.218  -0.334  -0.000  -3.483  -0.000  -0.248  -0.000  -0.334  -0.000
        0.218   0.000   0.000   0.000  -0.362   0.000  -0.089   0.000   0.000

    5  -0.529  -0.000  -0.334  -0.000  -4.221  -0.000  -0.312  -0.000  -0.334
       -0.529   0.105  -0.000   0.362   0.000   0.089   0.000   0.106  -0.000

    6  -0.218  -0.334  -0.000  -0.248  -0.000  -3.483  -0.000  -0.334   0.000
        0.218   0.000  -0.000  -0.000  -0.089   0.000  -0.362  -0.000  -0.000

    7  -0.529  -0.000  -0.334  -0.000  -0.312  -0.000  -4.221  -0.000  -0.334
       -0.529   0.106  -0.000   0.089  -0.000   0.362   0.000   0.105   0.000

    8  -0.529  -0.312  -0.000  -0.334  -0.000  -0.334  -0.000  -4.221  -0.000
        0.529   0.000  -0.089  -0.000  -0.106   0.000  -0.105   0.000  -0.362

    9  -0.218   0.000  -0.248  -0.000  -0.334   0.000  -0.334  -0.000  -3.483
       -0.218   0.089  -0.000  -0.000   0.000   0.000  -0.000   0.362   0.000

 make_epsm1_driver , wall:  0.00 [s] , cpu:  0.00 [s] <<< TIME
  Average fulfillment of the sum rule on Im[epsilon] for q-point    3 :     97.12  [%]

--- !PstatData
iteration_state: {dtset: 2, }
pid: 21579
file: m_screening_driver.F90
line: 1539
vmrss_mb:   6.47031250E+01
min_mpicomm_vmrss_mb:   6.47031250E+01
max_mpicomm_vmrss_mb:   6.47031250E+01
vmpeak_mb:   0.00000000E+00
vmstk_mb:   0.00000000E+00
...

 dataset: 2 , wall:  0.37 [s] , cpu:  0.38 [s] <<< TIME

== END DATASET(S) ==============================================================
================================================================================
  
 -outvars: echo values of variables after computation  --------
 
 These variables are accessible in NetCDF format (gwo_OUT.nc)

-          iomode           3
            acell      1.0000000000E+00  1.0000000000E+00  1.0000000000E+00 Bohr
              amu      1.20110000E+01
             ecut      4.50000000E+01 Hartree
          ecuteps1     0.00000000E+00 Hartree
          ecuteps2     2.00000000E+00 Hartree
          ecutwfn1     0.00000000E+00 Hartree
          ecutwfn2     4.50000000E+01 Hartree
-          fftalg         512
           getwfk          -1
             iscf          -2
           istwfk        2    3    7
              ixc          11
           jdtset        1    2
              kpt      0.00000000E+00  0.00000000E+00  0.00000000E+00
                       5.00000000E-01  0.00000000E+00  0.00000000E+00
                       5.00000000E-01  5.00000000E-01  0.00000000E+00
         kptrlatt        2    0    0      0    2    0      0    0    2
          kptrlen      9.54735576E+00
P           mkmem           1
            natom           2
            nband1         70
            nband2         60
           nbdbuf1          7
           nbdbuf2          6
           ndtset           2
            ngfft          30      30      30
             nkpt           3
           npweps1          0
           npweps2         15
           npwwfn1          0
           npwwfn2       1067
            nstep         150
             nsym          48
           ntypat           1
        optdriver1          0
        optdriver2          3
          ppmodel1          1
          ppmodel2          4
            rprim      0.0000000000E+00  3.3755000000E+00  3.3755000000E+00
                       3.3755000000E+00  0.0000000000E+00  3.3755000000E+00
                       3.3755000000E+00  3.3755000000E+00  0.0000000000E+00
          spgroup         227
           symrel      1  0  0   0  1  0   0  0  1      -1  0  0   0 -1  0   0  0 -1
                       0 -1  1   0 -1  0   1 -1  0       0  1 -1   0  1  0  -1  1  0
                      -1  0  0  -1  0  1  -1  1  0       1  0  0   1  0 -1   1 -1  0
                       0  1 -1   1  0 -1   0  0 -1       0 -1  1  -1  0  1   0  0  1
                      -1  0  0  -1  1  0  -1  0  1       1  0  0   1 -1  0   1  0 -1
                       0 -1  1   1 -1  0   0 -1  0       0  1 -1  -1  1  0   0  1  0
                       1  0  0   0  0  1   0  1  0      -1  0  0   0  0 -1   0 -1  0
                       0  1 -1   0  0 -1   1  0 -1       0 -1  1   0  0  1  -1  0  1
                      -1  0  1  -1  1  0  -1  0  0       1  0 -1   1 -1  0   1  0  0
                       0 -1  0   1 -1  0   0 -1  1       0  1  0  -1  1  0   0  1 -1
                       1  0 -1   0  0 -1   0  1 -1      -1  0  1   0  0  1   0 -1  1
                       0  1  0   0  0  1   1  0  0       0 -1  0   0  0 -1  -1  0  0
                       1  0 -1   0  1 -1   0  0 -1      -1  0  1   0 -1  1   0  0  1
                       0 -1  0   0 -1  1   1 -1  0       0  1  0   0  1 -1  -1  1  0
                      -1  0  1  -1  0  0  -1  1  0       1  0 -1   1  0  0   1 -1  0
                       0  1  0   1  0  0   0  0  1       0 -1  0  -1  0  0   0  0 -1
                       0  0 -1   0  1 -1   1  0 -1       0  0  1   0 -1  1  -1  0  1
                       1 -1  0   0 -1  1   0 -1  0      -1  1  0   0  1 -1   0  1  0
                       0  0  1   1  0  0   0  1  0       0  0 -1  -1  0  0   0 -1  0
                      -1  1  0  -1  0  0  -1  0  1       1 -1  0   1  0  0   1  0 -1
                       0  0  1   0  1  0   1  0  0       0  0 -1   0 -1  0  -1  0  0
                       1 -1  0   0 -1  0   0 -1  1      -1  1  0   0  1  0   0  1 -1
                       0  0 -1   1  0 -1   0  1 -1       0  0  1  -1  0  1   0 -1  1
                      -1  1  0  -1  0  1  -1  0  0       1 -1  0   1  0 -1   1  0  0
            tnons      0.0000000  0.0000000  0.0000000     0.2500000  0.2500000  0.2500000
                       0.0000000  0.0000000  0.0000000     0.2500000  0.2500000  0.2500000
                       0.0000000  0.0000000  0.0000000     0.2500000  0.2500000  0.2500000
                       0.0000000  0.0000000  0.0000000     0.2500000  0.2500000  0.2500000
                       0.0000000  0.0000000  0.0000000     0.2500000  0.2500000  0.2500000
                       0.0000000  0.0000000  0.0000000     0.2500000  0.2500000  0.2500000
                       0.0000000  0.0000000  0.0000000     0.2500000  0.2500000  0.2500000
                       0.0000000  0.0000000  0.0000000     0.2500000  0.2500000  0.2500000
                       0.0000000  0.0000000  0.0000000     0.2500000  0.2500000  0.2500000
                       0.0000000  0.0000000  0.0000000     0.2500000  0.2500000  0.2500000
                       0.0000000  0.0000000  0.0000000     0.2500000  0.2500000  0.2500000
                       0.0000000  0.0000000  0.0000000     0.2500000  0.2500000  0.2500000
                       0.0000000  0.0000000  0.0000000     0.2500000  0.2500000  0.2500000
                       0.0000000  0.0000000  0.0000000     0.2500000  0.2500000  0.2500000
                       0.0000000  0.0000000  0.0000000     0.2500000  0.2500000  0.2500000
                       0.0000000  0.0000000  0.0000000     0.2500000  0.2500000  0.2500000
                       0.0000000  0.0000000  0.0000000     0.2500000  0.2500000  0.2500000
                       0.0000000  0.0000000  0.0000000     0.2500000  0.2500000  0.2500000
                       0.0000000  0.0000000  0.0000000     0.2500000  0.2500000  0.2500000
                       0.0000000  0.0000000  0.0000000     0.2500000  0.2500000  0.2500000
                       0.0000000  0.0000000  0.0000000     0.2500000  0.2500000  0.2500000
                       0.0000000  0.0000000  0.0000000     0.2500000  0.2500000  0.2500000
                       0.0000000  0.0000000  0.0000000     0.2500000  0.2500000  0.2500000
                       0.0000000  0.0000000  0.0000000     0.2500000  0.2500000  0.2500000
           tolwfr      1.00000000E-14
            typat      1  1
              wtk        0.12500    0.50000    0.37500
           xangst      0.0000000000E+00  0.0000000000E+00  0.0000000000E+00
                       8.9311883380E-01  8.9311883380E-01  8.9311883380E-01
            xcart      0.0000000000E+00  0.0000000000E+00  0.0000000000E+00
                       1.6877500000E+00  1.6877500000E+00  1.6877500000E+00
             xred      0.0000000000E+00  0.0000000000E+00  0.0000000000E+00
                       2.5000000000E-01  2.5000000000E-01  2.5000000000E-01
            znucl        6.00000

================================================================================

 symlatt: the Bravais lattice is cF (face-centered cubic)
 symspgr: spgroup= 227  Fd -3 m   (=Oh^7)
 symspgr: optical characteristics = isotropic
 DATASET    1 : space group Fd -3 m (#227); Bravais cF (face-center cubic)

 symlatt: the Bravais lattice is cF (face-centered cubic)
 symspgr: spgroup= 227  Fd -3 m   (=Oh^7)
 symspgr: optical characteristics = isotropic
 DATASET    2 : space group Fd -3 m (#227); Bravais cF (face-center cubic)

================================================================================
  
 Proc.   0 individual time (sec): cpu=          1.6  wall=          1.7

 Calculation completed.
.Delivered   0 WARNINGs and   0 COMMENTs to log file.

--- !FinalSummary
program: abinit
version: 10.5.1.4
start_datetime: Wed Jun 25 22:23:39 2025
end_datetime: Wed Jun 25 22:23:41 2025
overall_cpu_time:           6.4
overall_wall_time:           6.5
exit_requested_by_user: no 
timelimit: 0
pseudos: 
    C   : 8af239e6261c16367070328997070877
usepaw: 0
mpi_procs: 4
omp_threads: 1
num_warnings: 0
num_comments: 0
...

--- !PstatData
iteration_state: {dtset: 2, }
pid: 21579
file: abinit.F90
line: 624
vmrss_mb:   6.48046875E+01
min_mpicomm_vmrss_mb:   4.85937500E+01
max_mpicomm_vmrss_mb:   6.48046875E+01
vmpeak_mb:   0.00000000E+00
vmstk_mb:   0.00000000E+00
...

